LAMMPS (17 Nov 2016)
#####################################################################
# Two stage simulation of  hematite with hexa oil                   #
# 1) Compress walls untill no occilation                            #
# 2) Add shear and record velocity profile                          #
#####################################################################

clear

#####################################
# Set boundary conditions and units #
#####################################

units          metal
atom_style     full
#boundary       p p f

############################
# Set simulation variables #
############################

variable       Temp      equal 353                      # Temperature in K
variable       Press     equal 15000                        # Applied pressure in bar - equal to 1.5 GPa
variable       Tstep     equal 0.001                       # Timestep in ps

variable       NcompRamp equal 10000                  # Number of timesteps  to apply load (incrementally)
variable       Ncomp     equal 10000                # Number of timesteps  to apply - until no more occilation of walls
variable       Nshear    equal 5000000                # Number of timesteps  to apply - use approx 4ns for 10m/s

variable       Nthermo   equal 1000                        # Number of timesteps  to print thermo data

#variable       Ndump_e   equal 1000                        # Number of timesteps per dump file (equilibration)
variable       Ndump_c   equal 10000                        # Number of timesteps per dump file (compression)
variable       Ndump_s   equal 10000                        # Number of timesteps per dump file (shear)

variable       Wall_v    equal 1.0                         # Wall velocity (A/ps) 0.1=10m/s

variable       res       equal 0.5                         # Resolution for density profiles etc (A)

# For compression - density profiles (100 for entire run)
variable       Nfreq_c_dp   equal ${Ncomp}/100                  # Calculate bin averages every this many timesteps
variable       Nfreq_c_dp   equal 10000/100                  
variable       Nevery_c_dp  equal 100                          # Use input values every this many timesteps
variable       Nrepeat_c_dp equal ${Nfreq_c_dp}/${Nevery_c_dp} # Number of times to use input values
variable       Nrepeat_c_dp equal 100/${Nevery_c_dp} 
variable       Nrepeat_c_dp equal 100/100 

# For compression - temperature and velocity profiles (100 for entire run)
variable       Nfreq_c_tp   equal ${Ncomp}/100                  # Calculate bin averages every this many timesteps
variable       Nfreq_c_tp   equal 10000/100                  
variable       Nevery_c_tp  equal 100                          # Use input values every this many timesteps
variable       Nrepeat_c_tp equal ${Nfreq_c_tp}/${Nevery_c_tp} # Number of times to use input values
variable       Nrepeat_c_tp equal 100/${Nevery_c_tp} 
variable       Nrepeat_c_tp equal 100/100 

# For shear - density profiles (100 for entire run)
variable       Nfreq_s_dp   equal ${Nshear}/100                 # Calculate bin averages every this many timesteps
variable       Nfreq_s_dp   equal 5000000/100                 
variable       Nevery_s_dp  equal 100                          # Use input values every this many timesteps
variable       Nrepeat_s_dp equal ${Nfreq_s_dp}/${Nevery_s_dp} # Number of times to use input values
variable       Nrepeat_s_dp equal 50000/${Nevery_s_dp} 
variable       Nrepeat_s_dp equal 50000/100 

# For shear - temperature and velocity profiles (100 for entire run)
variable       Nfreq_s_tp   equal ${Nshear}/100                 # Calculate bin averages every this many timesteps
variable       Nfreq_s_tp   equal 5000000/100                 
variable       Nevery_s_tp  equal 100                          # Use input values every this many timesteps
variable       Nrepeat_s_tp equal ${Nfreq_s_tp}/${Nevery_s_tp} # Number of times to use input values
variable       Nrepeat_s_tp equal 50000/${Nevery_s_tp} 
variable       Nrepeat_s_tp equal 50000/100 

#For shear - friction force measurements
variable        div_s    equal 100


#########################
# Set nonbonded info    #
#########################

pair_style     lj/cut/coul/long 10.0
pair_modify    mix geometric

kspace_style   pppm 1.0e-5
kspace_modify  slab 3.0
#kspace_modify  slab nozforce

special_bonds  lj/coul 0.0 0.0 0.5

neigh_modify   every 1 delay 0 check yes

######################
# Set bonded info    #
######################
bond_style      hybrid harmonic
angle_style     hybrid harmonic
dihedral_style  hybrid opls multi/harmonic
improper_style  hybrid harmonic

##################################
# Open minimisation restart file #
##################################

read_restart   comp.rst
WARNING: Restart file used different # of processors (../read_restart.cpp:717)
  orthogonal box = (0 0 -33.73) to (80.464 78.3944 133.73)
  3 by 2 by 8 MPI processor grid
  75520 atoms
  140864 bonds
  115200 angles
  169920 dihedrals
  12 = max # of 1-2 neighbors
  120 = max # of 1-3 neighbors
  1272 = max # of 1-4 neighbors
  152 = max # of special neighbors
include lopls.in.settings
    pair_coeff 1 1 lj/cut/coul/long 0.00286198 3.5
    pair_coeff 2 2 lj/cut/coul/long 0.00286198 3.5
    pair_coeff 3 3 lj/cut/coul/long 0.0013009 2.5
    pair_coeff 4 4 lj/cut/coul/long 0.00329562 3.55
    pair_coeff 5 5 lj/cut/coul/long 0.0013009 2.42
    pair_coeff 6 6 lj/cut/coul/long 0.00737178 3.12
    pair_coeff 7 7 lj/cut/coul/long 0.0 0.0
    pair_coeff 8 8 lj/cut/coul/long 0.00286198 3.5
    pair_coeff 9 9 lj/cut/coul/long 0.00286198 3.5
    pair_coeff 10 10 lj/cut/coul/long 0.00455316 3.75
    pair_coeff 11 11 lj/cut/coul/long 0.00910631 2.96
    pair_coeff 12 12 lj/cut/coul/long 0.00737178 3.25
    pair_coeff 13 13 lj/cut/coul/long 0.0 0.0
    pair_coeff 14 14 lj/cut/coul/long 0.00455316 3.75
    pair_coeff 15 15 lj/cut/coul/long 0.00910631 2.96
    pair_coeff 16 16 lj/cut/coul/long 0.00737178 3.0
    pair_coeff 17 17 lj/cut/coul/long 0.0 0.0
    pair_coeff 18 18 lj/cut/coul/long 0.00455316 3.75
    pair_coeff 19 19 lj/cut/coul/long 0.00910631 2.96
    pair_coeff 20 20 lj/cut/coul/long 0.00737178 3.0
    pair_coeff 21 21 lj/cut/coul/long 0.00286198 3.5
    pair_coeff 22 22 lj/cut/coul/long 0.00114046 2.5
    pair_coeff 23 23 lj/cut/coul/long 0.4127328412 2.321
    pair_coeff 24 24 lj/cut/coul/long 0.01474392192659695104 2.320
    pair_coeff 25 25 lj/cut/coul/long 0.00737196096329847552 2.960
    bond_coeff 1 harmonic 15.1772 1.51
    bond_coeff 2 harmonic 15.1772 1.51
    bond_coeff 3 harmonic 15.1772 1.51
    bond_coeff 4 harmonic 15.1772 1.51
    bond_coeff 5 harmonic 15.1772 1.51
    bond_coeff 6 harmonic 15.1772 1.51
    bond_coeff 7 harmonic 15.1772 1.51
    bond_coeff 8 harmonic 15.1772 1.51
    bond_coeff 9 harmonic 15.1772 1.51
    bond_coeff 10 harmonic 24.7171 1.229
    bond_coeff 11 harmonic 24.7171 1.229
    bond_coeff 12 harmonic 24.7171 1.229
    bond_coeff 13 harmonic 24.7171 1.229
    bond_coeff 14 harmonic 24.7171 1.229
    bond_coeff 15 harmonic 24.7171 1.229
    bond_coeff 16 harmonic 24.7171 1.229
    bond_coeff 17 harmonic 24.7171 1.229
    bond_coeff 18 harmonic 24.7171 1.229
    bond_coeff 19 harmonic 19.5135 1.364
    bond_coeff 20 harmonic 19.5135 1.364
    bond_coeff 21 harmonic 19.5135 1.364
    bond_coeff 22 harmonic 19.5135 1.364
    bond_coeff 23 harmonic 19.5135 1.364
    bond_coeff 24 harmonic 19.5135 1.364
    bond_coeff 25 harmonic 13.7462 1.522
    bond_coeff 26 harmonic 13.7462 1.522
    bond_coeff 27 harmonic 13.7462 1.522
    bond_coeff 28 harmonic 13.7462 1.522
    bond_coeff 29 harmonic 13.7462 1.522
    bond_coeff 30 harmonic 13.7462 1.522
    bond_coeff 31 harmonic 13.7462 1.522
    bond_coeff 32 harmonic 13.7462 1.522
    bond_coeff 33 harmonic 13.7462 1.522
    bond_coeff 34 harmonic 13.7462 1.522
    bond_coeff 35 harmonic 13.7462 1.522
    bond_coeff 36 harmonic 13.7462 1.522
    bond_coeff 37 harmonic 13.7462 1.522
    bond_coeff 38 harmonic 13.7462 1.522
    bond_coeff 39 harmonic 13.7462 1.522
    bond_coeff 40 harmonic 9.27977 1.327
    bond_coeff 41 harmonic 9.27977 1.327
    bond_coeff 42 harmonic 9.27977 1.327
    bond_coeff 43 harmonic 21.2481 1.335
    bond_coeff 44 harmonic 21.2481 1.335
    bond_coeff 45 harmonic 21.2481 1.335
    bond_coeff 46 harmonic 14.7436 1.09
    bond_coeff 47 harmonic 14.7436 1.09
    bond_coeff 48 harmonic 14.7436 1.09
    bond_coeff 49 harmonic 14.7436 1.09
    bond_coeff 50 harmonic 14.7436 1.09
    bond_coeff 51 harmonic 14.7436 1.09
    bond_coeff 52 harmonic 14.7436 1.09
    bond_coeff 53 harmonic 14.7436 1.09
    bond_coeff 54 harmonic 14.7436 1.09
    bond_coeff 55 harmonic 17.779 1.444
    bond_coeff 56 harmonic 17.779 1.444
    bond_coeff 57 harmonic 17.779 1.444
    bond_coeff 58 harmonic 23.98 0.945
    bond_coeff 59 harmonic 23.98 0.945
    bond_coeff 60 harmonic 23.98 0.945
    bond_coeff 61 harmonic 23.98 0.945
    bond_coeff 62 harmonic 13.8763 1.41
    bond_coeff 63 harmonic 13.8763 1.41
    bond_coeff 64 harmonic 13.8763 1.41
    bond_coeff 65 harmonic 13.8763 1.41
    bond_coeff 66 harmonic 13.8763 1.41
    bond_coeff 67 harmonic 13.8763 1.41
    bond_coeff 68 harmonic 13.8763 1.41
    bond_coeff 69 harmonic 13.8763 1.41
    bond_coeff 70 harmonic 13.8763 1.41
    bond_coeff 71 harmonic 13.8763 1.41
    bond_coeff 72 harmonic 10.8409 1.47
    bond_coeff 73 harmonic 10.8409 1.47
    bond_coeff 74 harmonic 17.3454 1.38
    bond_coeff 75 harmonic 17.3454 1.38
    bond_coeff 76 harmonic 19.5135 1.37
    bond_coeff 77 harmonic 19.5135 1.37
    bond_coeff 78 harmonic 23.98 0.945
    bond_coeff 79 harmonic 23.98 0.945
    bond_coeff 80 harmonic 11.6214 1.529
    bond_coeff 81 harmonic 11.6214 1.529
    bond_coeff 82 harmonic 11.6214 1.529
    bond_coeff 83 harmonic 11.6214 1.529
    bond_coeff 84 harmonic 11.6214 1.529
    bond_coeff 85 harmonic 11.6214 1.529
    bond_coeff 86 harmonic 11.6214 1.529
    bond_coeff 87 harmonic 11.6214 1.529
    bond_coeff 88 harmonic 11.6214 1.529
    bond_coeff 89 harmonic 11.6214 1.529
    bond_coeff 90 harmonic 11.6214 1.529
    bond_coeff 91 harmonic 11.6214 1.529
    bond_coeff 92 harmonic 11.6214 1.529
    bond_coeff 93 harmonic 11.6214 1.529
    bond_coeff 94 harmonic 11.6214 1.529
    bond_coeff 95 harmonic 11.6214 1.529
    bond_coeff 96 harmonic 11.6214 1.529
    bond_coeff 97 harmonic 11.6214 1.529
    bond_coeff 98 harmonic 11.6214 1.529
    bond_coeff 99 harmonic 11.6214 1.529
    bond_coeff 100 harmonic 11.6214 1.529
    bond_coeff 101 harmonic 11.6214 1.529
    bond_coeff 102 harmonic 11.6214 1.529
    bond_coeff 103 harmonic 11.6214 1.529
    bond_coeff 104 harmonic 11.6214 1.529
    bond_coeff 105 harmonic 13.8763 1.41
    bond_coeff 106 harmonic 13.8763 1.41
    bond_coeff 107 harmonic 13.8763 1.41
    bond_coeff 108 harmonic 13.8763 1.41
    bond_coeff 109 harmonic 13.8763 1.41
    bond_coeff 110 harmonic 14.6135 1.449
    bond_coeff 111 harmonic 14.6135 1.449
    bond_coeff 112 harmonic 14.6135 1.449
    bond_coeff 113 harmonic 14.6135 1.449
    bond_coeff 114 harmonic 14.6135 1.449
    bond_coeff 115 harmonic 14.7436 1.09
    bond_coeff 116 harmonic 14.7436 1.09
    bond_coeff 117 harmonic 14.7436 1.09
    bond_coeff 118 harmonic 14.7436 1.09
    bond_coeff 119 harmonic 14.7436 1.09
    bond_coeff 120 harmonic 14.7436 1.09
    bond_coeff 121 harmonic 14.7436 1.09
    bond_coeff 122 harmonic 14.7436 1.09
    bond_coeff 123 harmonic 14.7436 1.09
    bond_coeff 124 harmonic 14.7436 1.09
    bond_coeff 125 harmonic 14.7436 1.09
    bond_coeff 126 harmonic 14.7436 1.09
    bond_coeff 127 harmonic 14.7436 1.09
    bond_coeff 128 harmonic 14.7436 1.09
    bond_coeff 129 harmonic 14.7436 1.09
    bond_coeff 130 harmonic 13.7462 1.51
    bond_coeff 131 harmonic 13.7462 1.51
    bond_coeff 132 harmonic 13.7462 1.51
    bond_coeff 133 harmonic 13.7462 1.51
    bond_coeff 134 harmonic 13.7462 1.51
    bond_coeff 135 harmonic 10.8409 1.47
    bond_coeff 136 harmonic 13.8763 1.45
    bond_coeff 137 harmonic 19.5135 1.37
    bond_coeff 138 harmonic 18.8197 1.01
    bond_coeff 139 harmonic 14.7436 1.08
    bond_coeff 140 harmonic 14.7436 1.08
    bond_coeff 141 harmonic 14.7436 1.08
    bond_coeff 142 harmonic 23.8065 1.34
    bond_coeff 143 harmonic 5.63738 1.945000
    bond_coeff 144 harmonic 5.63738 2.116000
    bond_coeff 145 harmonic 5.63738 2.888000
    bond_coeff 146 harmonic 5.63738 2.775000
    bond_coeff 147 harmonic 5.63738 2.669000
    bond_coeff 148 harmonic 5.63738 2.971000
    angle_coeff 1 harmonic 3.46907 121.4
    angle_coeff 2 harmonic 3.46907 121.4
    angle_coeff 3 harmonic 3.46907 121.4
    angle_coeff 4 harmonic 3.46907 121.4
    angle_coeff 5 harmonic 3.46907 121.4
    angle_coeff 6 harmonic 3.46907 121.4
    angle_coeff 7 harmonic 3.46907 121.4
    angle_coeff 8 harmonic 3.46907 121.4
    angle_coeff 9 harmonic 3.46907 121.4
    angle_coeff 10 harmonic 3.46907 121.4
    angle_coeff 11 harmonic 3.46907 121.4
    angle_coeff 12 harmonic 3.46907 121.4
    angle_coeff 13 harmonic 3.46907 121.4
    angle_coeff 14 harmonic 3.46907 121.4
    angle_coeff 15 harmonic 3.46907 121.4
    angle_coeff 16 harmonic 3.46907 121.4
    angle_coeff 17 harmonic 3.46907 121.4
    angle_coeff 18 harmonic 3.46907 121.4
    angle_coeff 19 harmonic 3.46907 121.4
    angle_coeff 20 harmonic 3.46907 121.4
    angle_coeff 21 harmonic 3.46907 121.4
    angle_coeff 22 harmonic 3.46907 121.4
    angle_coeff 23 harmonic 3.46907 121.4
    angle_coeff 24 harmonic 3.46907 121.4
    angle_coeff 25 harmonic 3.46907 121.4
    angle_coeff 26 harmonic 3.46907 121.4
    angle_coeff 27 harmonic 3.46907 121.4
    angle_coeff 28 harmonic 3.46907 126.0
    angle_coeff 29 harmonic 3.46907 126.0
    angle_coeff 30 harmonic 3.46907 126.0
    angle_coeff 31 harmonic 3.46907 126.0
    angle_coeff 32 harmonic 3.46907 126.0
    angle_coeff 33 harmonic 3.46907 126.0
    angle_coeff 34 harmonic 3.46907 126.0
    angle_coeff 35 harmonic 3.46907 126.0
    angle_coeff 36 harmonic 3.46907 126.0
    angle_coeff 37 harmonic 3.46907 126.0
    angle_coeff 38 harmonic 3.46907 126.0
    angle_coeff 39 harmonic 3.46907 126.0
    angle_coeff 40 harmonic 3.46907 126.0
    angle_coeff 41 harmonic 3.46907 126.0
    angle_coeff 42 harmonic 3.46907 126.0
    angle_coeff 43 harmonic 3.46907 126.0
    angle_coeff 44 harmonic 3.46907 126.0
    angle_coeff 45 harmonic 3.46907 126.0
    angle_coeff 46 harmonic 3.46907 126.0
    angle_coeff 47 harmonic 3.46907 126.0
    angle_coeff 48 harmonic 3.46907 126.0
    angle_coeff 49 harmonic 3.46907 126.0
    angle_coeff 50 harmonic 3.46907 126.0
    angle_coeff 51 harmonic 3.46907 126.0
    angle_coeff 52 harmonic 3.46907 126.0
    angle_coeff 53 harmonic 3.46907 126.0
    angle_coeff 54 harmonic 3.46907 126.0
    angle_coeff 55 harmonic 3.46907 121.0
    angle_coeff 56 harmonic 3.46907 121.0
    angle_coeff 57 harmonic 3.46907 121.0
    angle_coeff 58 harmonic 3.46907 121.0
    angle_coeff 59 harmonic 3.46907 121.0
    angle_coeff 60 harmonic 3.46907 121.0
    angle_coeff 61 harmonic 3.46907 121.0
    angle_coeff 62 harmonic 3.46907 121.0
    angle_coeff 63 harmonic 3.46907 121.0
    angle_coeff 64 harmonic 3.46907 121.0
    angle_coeff 65 harmonic 3.46907 121.0
    angle_coeff 66 harmonic 3.46907 121.0
    angle_coeff 67 harmonic 3.46907 121.0
    angle_coeff 68 harmonic 3.46907 121.0
    angle_coeff 69 harmonic 3.46907 121.0
    angle_coeff 70 harmonic 3.46907 121.0
    angle_coeff 71 harmonic 3.46907 121.0
    angle_coeff 72 harmonic 3.46907 121.0
    angle_coeff 73 harmonic 3.03544 108.0
    angle_coeff 74 harmonic 3.03544 108.0
    angle_coeff 75 harmonic 3.03544 108.0
    angle_coeff 76 harmonic 3.03544 108.0
    angle_coeff 77 harmonic 3.03544 108.0
    angle_coeff 78 harmonic 3.03544 108.0
    angle_coeff 79 harmonic 3.03544 108.0
    angle_coeff 80 harmonic 3.03544 108.0
    angle_coeff 81 harmonic 3.03544 108.0
    angle_coeff 82 harmonic 3.03544 108.0
    angle_coeff 83 harmonic 3.03544 108.0
    angle_coeff 84 harmonic 3.03544 108.0
    angle_coeff 85 harmonic 3.03544 108.0
    angle_coeff 86 harmonic 3.03544 108.0
    angle_coeff 87 harmonic 3.03544 108.0
    angle_coeff 88 harmonic 3.03544 108.0
    angle_coeff 89 harmonic 3.03544 108.0
    angle_coeff 90 harmonic 3.03544 108.0
    angle_coeff 91 harmonic 3.03544 108.0
    angle_coeff 92 harmonic 3.03544 108.0
    angle_coeff 93 harmonic 3.03544 108.0
    angle_coeff 94 harmonic 3.03544 108.0
    angle_coeff 95 harmonic 3.03544 108.0
    angle_coeff 96 harmonic 3.03544 108.0
    angle_coeff 97 harmonic 3.03544 108.0
    angle_coeff 98 harmonic 3.03544 108.0
    angle_coeff 99 harmonic 3.03544 108.0
    angle_coeff 100 harmonic 3.03544 108.0
    angle_coeff 101 harmonic 3.03544 108.0
    angle_coeff 102 harmonic 3.03544 108.0
    angle_coeff 103 harmonic 3.03544 116.0
    angle_coeff 104 harmonic 3.03544 116.0
    angle_coeff 105 harmonic 3.03544 116.0
    angle_coeff 106 harmonic 3.03544 116.0
    angle_coeff 107 harmonic 3.03544 116.0
    angle_coeff 108 harmonic 3.03544 116.0
    angle_coeff 109 harmonic 3.03544 116.0
    angle_coeff 110 harmonic 3.03544 116.0
    angle_coeff 111 harmonic 3.03544 116.0
    angle_coeff 112 harmonic 3.03544 116.0
    angle_coeff 113 harmonic 3.03544 116.0
    angle_coeff 114 harmonic 3.03544 116.0
    angle_coeff 115 harmonic 3.03544 116.0
    angle_coeff 116 harmonic 3.03544 116.0
    angle_coeff 117 harmonic 3.03544 116.0
    angle_coeff 118 harmonic 3.03544 116.0
    angle_coeff 119 harmonic 3.03544 116.0
    angle_coeff 120 harmonic 3.03544 116.0
    angle_coeff 121 harmonic 3.03544 116.0
    angle_coeff 122 harmonic 3.03544 116.0
    angle_coeff 123 harmonic 3.03544 116.0
    angle_coeff 124 harmonic 3.03544 116.0
    angle_coeff 125 harmonic 3.03544 116.0
    angle_coeff 126 harmonic 3.03544 116.0
    angle_coeff 127 harmonic 3.03544 116.0
    angle_coeff 128 harmonic 3.03544 116.0
    angle_coeff 129 harmonic 3.03544 116.0
    angle_coeff 130 harmonic 3.03544 116.0
    angle_coeff 131 harmonic 3.03544 116.0
    angle_coeff 132 harmonic 3.03544 116.0
    angle_coeff 133 harmonic 3.03544 116.0
    angle_coeff 134 harmonic 3.03544 116.0
    angle_coeff 135 harmonic 3.03544 116.0
    angle_coeff 136 harmonic 3.03544 116.0
    angle_coeff 137 harmonic 3.03544 116.0
    angle_coeff 138 harmonic 3.03544 116.0
    angle_coeff 139 harmonic 3.03544 116.0
    angle_coeff 140 harmonic 3.03544 116.0
    angle_coeff 141 harmonic 3.03544 116.0
    angle_coeff 142 harmonic 3.03544 116.0
    angle_coeff 143 harmonic 3.03544 116.0
    angle_coeff 144 harmonic 3.03544 116.0
    angle_coeff 145 harmonic 3.03544 116.0
    angle_coeff 146 harmonic 3.03544 116.0
    angle_coeff 147 harmonic 3.03544 116.0
    angle_coeff 148 harmonic 3.03544 116.0
    angle_coeff 149 harmonic 3.03544 116.0
    angle_coeff 150 harmonic 3.03544 116.0
    angle_coeff 151 harmonic 3.03544 116.0
    angle_coeff 152 harmonic 3.03544 116.0
    angle_coeff 153 harmonic 3.03544 116.0
    angle_coeff 154 harmonic 3.03544 116.0
    angle_coeff 155 harmonic 3.03544 116.0
    angle_coeff 156 harmonic 3.03544 116.0
    angle_coeff 157 harmonic 3.03544 116.0
    angle_coeff 158 harmonic 3.03544 116.0
    angle_coeff 159 harmonic 3.03544 116.0
    angle_coeff 160 harmonic 3.03544 116.0
    angle_coeff 161 harmonic 3.03544 116.0
    angle_coeff 162 harmonic 3.03544 116.0
    angle_coeff 163 harmonic 3.03544 116.0
    angle_coeff 164 harmonic 3.03544 116.0
    angle_coeff 165 harmonic 3.03544 116.0
    angle_coeff 166 harmonic 3.03544 116.0
    angle_coeff 167 harmonic 3.03544 116.0
    angle_coeff 168 harmonic 3.03544 116.0
    angle_coeff 169 harmonic 3.03544 116.0
    angle_coeff 170 harmonic 3.03544 116.0
    angle_coeff 171 harmonic 3.03544 116.0
    angle_coeff 172 harmonic 3.03544 116.0
    angle_coeff 173 harmonic 3.03544 116.0
    angle_coeff 174 harmonic 3.03544 116.0
    angle_coeff 175 harmonic 3.03544 116.0
    angle_coeff 176 harmonic 3.03544 116.0
    angle_coeff 177 harmonic 3.03544 116.0
    angle_coeff 178 harmonic 3.46907 117.2
    angle_coeff 179 harmonic 3.46907 117.2
    angle_coeff 180 harmonic 3.46907 117.2
    angle_coeff 181 harmonic 3.46907 117.2
    angle_coeff 182 harmonic 3.46907 117.2
    angle_coeff 183 harmonic 3.46907 117.2
    angle_coeff 184 harmonic 3.46907 117.2
    angle_coeff 185 harmonic 3.46907 117.2
    angle_coeff 186 harmonic 3.46907 117.2
    angle_coeff 187 harmonic 3.46907 117.2
    angle_coeff 188 harmonic 3.46907 117.2
    angle_coeff 189 harmonic 3.46907 117.2
    angle_coeff 190 harmonic 3.46907 117.2
    angle_coeff 191 harmonic 3.46907 117.2
    angle_coeff 192 harmonic 3.46907 117.2
    angle_coeff 193 harmonic 3.46907 117.2
    angle_coeff 194 harmonic 3.46907 117.2
    angle_coeff 195 harmonic 3.46907 117.2
    angle_coeff 196 harmonic 3.46907 117.2
    angle_coeff 197 harmonic 3.46907 117.2
    angle_coeff 198 harmonic 3.46907 117.2
    angle_coeff 199 harmonic 3.46907 117.2
    angle_coeff 200 harmonic 3.46907 117.2
    angle_coeff 201 harmonic 3.46907 117.2
    angle_coeff 202 harmonic 3.46907 117.2
    angle_coeff 203 harmonic 3.46907 117.2
    angle_coeff 204 harmonic 3.46907 117.2
    angle_coeff 205 harmonic 3.46907 117.2
    angle_coeff 206 harmonic 3.46907 117.2
    angle_coeff 207 harmonic 3.46907 117.2
    angle_coeff 208 harmonic 3.46907 117.2
    angle_coeff 209 harmonic 3.46907 117.2
    angle_coeff 210 harmonic 3.46907 117.2
    angle_coeff 211 harmonic 3.46907 117.2
    angle_coeff 212 harmonic 3.46907 117.2
    angle_coeff 213 harmonic 3.46907 117.2
    angle_coeff 214 harmonic 3.46907 117.2
    angle_coeff 215 harmonic 3.46907 117.2
    angle_coeff 216 harmonic 3.46907 117.2
    angle_coeff 217 harmonic 3.46907 117.2
    angle_coeff 218 harmonic 3.46907 117.2
    angle_coeff 219 harmonic 3.46907 117.2
    angle_coeff 220 harmonic 3.46907 117.2
    angle_coeff 221 harmonic 3.46907 117.2
    angle_coeff 222 harmonic 3.46907 117.2
    angle_coeff 223 harmonic 3.46907 120.4
    angle_coeff 224 harmonic 3.46907 120.4
    angle_coeff 225 harmonic 3.46907 120.4
    angle_coeff 226 harmonic 3.46907 120.4
    angle_coeff 227 harmonic 3.46907 120.4
    angle_coeff 228 harmonic 3.46907 120.4
    angle_coeff 229 harmonic 3.46907 120.4
    angle_coeff 230 harmonic 3.46907 120.4
    angle_coeff 231 harmonic 3.46907 120.4
    angle_coeff 232 harmonic 3.46907 120.4
    angle_coeff 233 harmonic 3.46907 120.4
    angle_coeff 234 harmonic 3.46907 120.4
    angle_coeff 235 harmonic 3.46907 120.4
    angle_coeff 236 harmonic 3.46907 120.4
    angle_coeff 237 harmonic 3.46907 120.4
    angle_coeff 238 harmonic 3.46907 120.4
    angle_coeff 239 harmonic 3.46907 120.4
    angle_coeff 240 harmonic 3.46907 120.4
    angle_coeff 241 harmonic 3.46907 120.4
    angle_coeff 242 harmonic 3.46907 120.4
    angle_coeff 243 harmonic 3.46907 120.4
    angle_coeff 244 harmonic 3.46907 120.4
    angle_coeff 245 harmonic 3.46907 120.4
    angle_coeff 246 harmonic 3.46907 120.4
    angle_coeff 247 harmonic 3.46907 120.4
    angle_coeff 248 harmonic 3.46907 120.4
    angle_coeff 249 harmonic 3.46907 120.4
    angle_coeff 250 harmonic 3.46907 120.4
    angle_coeff 251 harmonic 3.46907 120.4
    angle_coeff 252 harmonic 3.46907 120.4
    angle_coeff 253 harmonic 3.46907 120.4
    angle_coeff 254 harmonic 3.46907 120.4
    angle_coeff 255 harmonic 3.46907 120.4
    angle_coeff 256 harmonic 3.46907 120.4
    angle_coeff 257 harmonic 3.46907 120.4
    angle_coeff 258 harmonic 3.46907 120.4
    angle_coeff 259 harmonic 3.46907 120.4
    angle_coeff 260 harmonic 3.46907 120.4
    angle_coeff 261 harmonic 3.46907 120.4
    angle_coeff 262 harmonic 3.46907 120.4
    angle_coeff 263 harmonic 3.46907 120.4
    angle_coeff 264 harmonic 3.46907 120.4
    angle_coeff 265 harmonic 3.46907 120.4
    angle_coeff 266 harmonic 3.46907 120.4
    angle_coeff 267 harmonic 3.46907 120.4
    angle_coeff 268 harmonic 3.51244 111.4
    angle_coeff 269 harmonic 3.51244 111.4
    angle_coeff 270 harmonic 3.51244 111.4
    angle_coeff 271 harmonic 3.51244 111.4
    angle_coeff 272 harmonic 3.51244 111.4
    angle_coeff 273 harmonic 3.51244 111.4
    angle_coeff 274 harmonic 3.51244 111.4
    angle_coeff 275 harmonic 3.51244 111.4
    angle_coeff 276 harmonic 3.51244 111.4
    angle_coeff 277 harmonic 3.51244 111.4
    angle_coeff 278 harmonic 3.51244 111.4
    angle_coeff 279 harmonic 3.51244 111.4
    angle_coeff 280 harmonic 3.51244 111.4
    angle_coeff 281 harmonic 3.51244 111.4
    angle_coeff 282 harmonic 3.51244 111.4
    angle_coeff 283 harmonic 3.59916 123.4
    angle_coeff 284 harmonic 3.59916 123.4
    angle_coeff 285 harmonic 3.59916 123.4
    angle_coeff 286 harmonic 3.59916 123.4
    angle_coeff 287 harmonic 3.59916 123.4
    angle_coeff 288 harmonic 3.59916 123.4
    angle_coeff 289 harmonic 3.59916 123.4
    angle_coeff 290 harmonic 3.59916 123.4
    angle_coeff 291 harmonic 3.59916 123.4
    angle_coeff 292 harmonic 3.03544 114.2
    angle_coeff 293 harmonic 3.03544 114.2
    angle_coeff 294 harmonic 3.03544 114.2
    angle_coeff 295 harmonic 3.03544 116.6
    angle_coeff 296 harmonic 3.03544 116.6
    angle_coeff 297 harmonic 3.03544 116.6
    angle_coeff 298 harmonic 3.03544 116.6
    angle_coeff 299 harmonic 3.03544 116.6
    angle_coeff 300 harmonic 3.03544 116.6
    angle_coeff 301 harmonic 3.03544 116.6
    angle_coeff 302 harmonic 3.03544 116.6
    angle_coeff 303 harmonic 3.03544 116.6
    angle_coeff 304 harmonic 3.03544 116.6
    angle_coeff 305 harmonic 3.03544 116.6
    angle_coeff 306 harmonic 3.03544 116.6
    angle_coeff 307 harmonic 3.03544 116.6
    angle_coeff 308 harmonic 3.03544 116.6
    angle_coeff 309 harmonic 3.03544 116.6
    angle_coeff 310 harmonic 3.03544 116.6
    angle_coeff 311 harmonic 3.03544 116.6
    angle_coeff 312 harmonic 3.03544 116.6
    angle_coeff 313 harmonic 3.03544 116.6
    angle_coeff 314 harmonic 3.03544 116.6
    angle_coeff 315 harmonic 3.03544 116.6
    angle_coeff 316 harmonic 3.03544 116.6
    angle_coeff 317 harmonic 3.03544 116.6
    angle_coeff 318 harmonic 3.03544 116.6
    angle_coeff 319 harmonic 3.46907 122.9
    angle_coeff 320 harmonic 3.46907 122.9
    angle_coeff 321 harmonic 3.46907 122.9
    angle_coeff 322 harmonic 3.46907 122.9
    angle_coeff 323 harmonic 3.46907 122.9
    angle_coeff 324 harmonic 3.46907 122.9
    angle_coeff 325 harmonic 3.46907 122.9
    angle_coeff 326 harmonic 3.46907 122.9
    angle_coeff 327 harmonic 3.46907 122.9
    angle_coeff 328 harmonic 3.51244 111.4
    angle_coeff 329 harmonic 3.51244 111.4
    angle_coeff 330 harmonic 3.51244 111.4
    angle_coeff 331 harmonic 1.51772 115.0
    angle_coeff 332 harmonic 1.51772 115.0
    angle_coeff 333 harmonic 1.51772 115.0
    angle_coeff 334 harmonic 1.51772 115.0
    angle_coeff 335 harmonic 1.51772 115.0
    angle_coeff 336 harmonic 1.51772 115.0
    angle_coeff 337 harmonic 1.51772 115.0
    angle_coeff 338 harmonic 1.51772 115.0
    angle_coeff 339 harmonic 1.51772 115.0
    angle_coeff 340 harmonic 1.51772 115.0
    angle_coeff 341 harmonic 1.51772 115.0
    angle_coeff 342 harmonic 1.51772 115.0
    angle_coeff 343 harmonic 1.51772 115.0
    angle_coeff 344 harmonic 1.51772 115.0
    angle_coeff 345 harmonic 1.51772 115.0
    angle_coeff 346 harmonic 1.51772 115.0
    angle_coeff 347 harmonic 1.51772 115.0
    angle_coeff 348 harmonic 1.51772 115.0
    angle_coeff 349 harmonic 1.51772 115.0
    angle_coeff 350 harmonic 1.51772 115.0
    angle_coeff 351 harmonic 1.51772 115.0
    angle_coeff 352 harmonic 1.51772 115.0
    angle_coeff 353 harmonic 1.51772 115.0
    angle_coeff 354 harmonic 1.51772 115.0
    angle_coeff 355 harmonic 1.51772 115.0
    angle_coeff 356 harmonic 1.51772 115.0
    angle_coeff 357 harmonic 1.51772 115.0
    angle_coeff 358 harmonic 1.51772 115.0
    angle_coeff 359 harmonic 1.51772 115.0
    angle_coeff 360 harmonic 1.51772 115.0
    angle_coeff 361 harmonic 1.51772 115.0
    angle_coeff 362 harmonic 1.51772 115.0
    angle_coeff 363 harmonic 1.51772 115.0
    angle_coeff 364 harmonic 1.51772 115.0
    angle_coeff 365 harmonic 1.51772 115.0
    angle_coeff 366 harmonic 1.51772 115.0
    angle_coeff 367 harmonic 1.51772 115.0
    angle_coeff 368 harmonic 1.51772 115.0
    angle_coeff 369 harmonic 1.51772 115.0
    angle_coeff 370 harmonic 1.51772 115.0
    angle_coeff 371 harmonic 1.51772 115.0
    angle_coeff 372 harmonic 1.51772 115.0
    angle_coeff 373 harmonic 1.51772 115.0
    angle_coeff 374 harmonic 1.51772 115.0
    angle_coeff 375 harmonic 1.51772 115.0
    angle_coeff 376 harmonic 1.51772 115.0
    angle_coeff 377 harmonic 1.51772 115.0
    angle_coeff 378 harmonic 1.51772 115.0
    angle_coeff 379 harmonic 1.51772 115.0
    angle_coeff 380 harmonic 1.51772 115.0
    angle_coeff 381 harmonic 1.51772 115.0
    angle_coeff 382 harmonic 1.51772 115.0
    angle_coeff 383 harmonic 1.51772 115.0
    angle_coeff 384 harmonic 1.51772 115.0
    angle_coeff 385 harmonic 1.51772 115.0
    angle_coeff 386 harmonic 1.51772 115.0
    angle_coeff 387 harmonic 1.51772 115.0
    angle_coeff 388 harmonic 1.51772 115.0
    angle_coeff 389 harmonic 1.51772 115.0
    angle_coeff 390 harmonic 1.51772 115.0
    angle_coeff 391 harmonic 1.51772 115.0
    angle_coeff 392 harmonic 1.51772 115.0
    angle_coeff 393 harmonic 1.51772 115.0
    angle_coeff 394 harmonic 1.51772 115.0
    angle_coeff 395 harmonic 1.51772 115.0
    angle_coeff 396 harmonic 1.51772 115.0
    angle_coeff 397 harmonic 1.51772 115.0
    angle_coeff 398 harmonic 1.51772 115.0
    angle_coeff 399 harmonic 1.51772 115.0
    angle_coeff 400 harmonic 1.51772 115.0
    angle_coeff 401 harmonic 1.51772 115.0
    angle_coeff 402 harmonic 1.51772 115.0
    angle_coeff 403 harmonic 1.51772 123.0
    angle_coeff 404 harmonic 1.51772 123.0
    angle_coeff 405 harmonic 1.51772 123.0
    angle_coeff 406 harmonic 1.51772 123.0
    angle_coeff 407 harmonic 1.51772 123.0
    angle_coeff 408 harmonic 1.51772 123.0
    angle_coeff 409 harmonic 1.51772 123.0
    angle_coeff 410 harmonic 1.51772 123.0
    angle_coeff 411 harmonic 1.51772 123.0
    angle_coeff 412 harmonic 1.51772 123.0
    angle_coeff 413 harmonic 1.51772 123.0
    angle_coeff 414 harmonic 1.51772 123.0
    angle_coeff 415 harmonic 1.51772 123.0
    angle_coeff 416 harmonic 1.51772 123.0
    angle_coeff 417 harmonic 1.51772 123.0
    angle_coeff 418 harmonic 1.51772 123.0
    angle_coeff 419 harmonic 1.51772 123.0
    angle_coeff 420 harmonic 1.51772 123.0
    angle_coeff 421 harmonic 1.51772 123.0
    angle_coeff 422 harmonic 1.51772 123.0
    angle_coeff 423 harmonic 1.51772 123.0
    angle_coeff 424 harmonic 1.51772 123.0
    angle_coeff 425 harmonic 1.51772 123.0
    angle_coeff 426 harmonic 1.51772 123.0
    angle_coeff 427 harmonic 1.51772 123.0
    angle_coeff 428 harmonic 1.51772 123.0
    angle_coeff 429 harmonic 1.51772 123.0
    angle_coeff 430 harmonic 1.73454 114.0
    angle_coeff 431 harmonic 1.73454 114.0
    angle_coeff 432 harmonic 1.73454 114.0
    angle_coeff 433 harmonic 1.73454 114.0
    angle_coeff 434 harmonic 1.73454 114.0
    angle_coeff 435 harmonic 1.73454 114.0
    angle_coeff 436 harmonic 1.73454 114.0
    angle_coeff 437 harmonic 1.73454 114.0
    angle_coeff 438 harmonic 1.73454 114.0
    angle_coeff 439 harmonic 1.73454 115.0
    angle_coeff 440 harmonic 1.73454 115.0
    angle_coeff 441 harmonic 1.73454 115.0
    angle_coeff 442 harmonic 1.73454 115.0
    angle_coeff 443 harmonic 1.73454 115.0
    angle_coeff 444 harmonic 1.73454 115.0
    angle_coeff 445 harmonic 1.73454 115.0
    angle_coeff 446 harmonic 1.73454 115.0
    angle_coeff 447 harmonic 1.73454 115.0
    angle_coeff 448 harmonic 1.73454 115.0
    angle_coeff 449 harmonic 1.73454 115.0
    angle_coeff 450 harmonic 1.73454 115.0
    angle_coeff 451 harmonic 1.73454 115.0
    angle_coeff 452 harmonic 1.73454 115.0
    angle_coeff 453 harmonic 1.73454 115.0
    angle_coeff 454 harmonic 1.73454 115.0
    angle_coeff 455 harmonic 1.73454 115.0
    angle_coeff 456 harmonic 1.73454 115.0
    angle_coeff 457 harmonic 1.73454 115.0
    angle_coeff 458 harmonic 1.73454 115.0
    angle_coeff 459 harmonic 1.73454 115.0
    angle_coeff 460 harmonic 1.73454 115.0
    angle_coeff 461 harmonic 1.73454 115.0
    angle_coeff 462 harmonic 1.73454 115.0
    angle_coeff 463 harmonic 1.73454 115.0
    angle_coeff 464 harmonic 1.73454 115.0
    angle_coeff 465 harmonic 1.73454 115.0
    angle_coeff 466 harmonic 3.03544 115.5
    angle_coeff 467 harmonic 3.03544 115.5
    angle_coeff 468 harmonic 3.03544 115.5
    angle_coeff 469 harmonic 3.46907 125.3
    angle_coeff 470 harmonic 3.46907 125.3
    angle_coeff 471 harmonic 3.46907 125.3
    angle_coeff 472 harmonic 3.46907 125.3
    angle_coeff 473 harmonic 3.46907 125.3
    angle_coeff 474 harmonic 3.46907 125.3
    angle_coeff 475 harmonic 3.46907 125.3
    angle_coeff 476 harmonic 3.46907 125.3
    angle_coeff 477 harmonic 3.46907 125.3
    angle_coeff 478 harmonic 1.51772 113.0
    angle_coeff 479 harmonic 1.51772 113.0
    angle_coeff 480 harmonic 1.51772 113.0
    angle_coeff 481 harmonic 1.51772 113.0
    angle_coeff 482 harmonic 1.51772 113.0
    angle_coeff 483 harmonic 1.51772 113.0
    angle_coeff 484 harmonic 1.51772 113.0
    angle_coeff 485 harmonic 1.51772 113.0
    angle_coeff 486 harmonic 1.51772 113.0
    angle_coeff 487 harmonic 1.51772 113.0
    angle_coeff 488 harmonic 1.51772 113.0
    angle_coeff 489 harmonic 1.51772 113.0
    angle_coeff 490 harmonic 2.38499 108.5
    angle_coeff 491 harmonic 2.38499 108.5
    angle_coeff 492 harmonic 2.38499 108.5
    angle_coeff 493 harmonic 2.38499 108.5
    angle_coeff 494 harmonic 2.38499 108.5
    angle_coeff 495 harmonic 2.38499 108.5
    angle_coeff 496 harmonic 2.38499 108.5
    angle_coeff 497 harmonic 2.38499 108.5
    angle_coeff 498 harmonic 2.38499 108.5
    angle_coeff 499 harmonic 2.38499 108.5
    angle_coeff 500 harmonic 2.38499 108.5
    angle_coeff 501 harmonic 2.38499 108.5
    angle_coeff 502 harmonic 2.38499 108.5
    angle_coeff 503 harmonic 2.38499 108.5
    angle_coeff 504 harmonic 2.38499 108.5
    angle_coeff 505 harmonic 2.38499 108.5
    angle_coeff 506 harmonic 2.38499 108.5
    angle_coeff 507 harmonic 2.38499 108.5
    angle_coeff 508 harmonic 2.38499 108.5
    angle_coeff 509 harmonic 2.38499 108.5
    angle_coeff 510 harmonic 2.12481 105.4
    angle_coeff 511 harmonic 2.12481 105.4
    angle_coeff 512 harmonic 2.12481 105.4
    angle_coeff 513 harmonic 2.12481 105.4
    angle_coeff 514 harmonic 1.51772 109.0
    angle_coeff 515 harmonic 1.51772 109.0
    angle_coeff 516 harmonic 1.51772 109.0
    angle_coeff 517 harmonic 1.51772 109.0
    angle_coeff 518 harmonic 2.73189 111.1
    angle_coeff 519 harmonic 2.73189 111.1
    angle_coeff 520 harmonic 2.73189 111.1
    angle_coeff 521 harmonic 2.73189 111.1
    angle_coeff 522 harmonic 2.73189 111.1
    angle_coeff 523 harmonic 2.73189 111.1
    angle_coeff 524 harmonic 2.73189 111.1
    angle_coeff 525 harmonic 2.73189 111.1
    angle_coeff 526 harmonic 2.73189 111.1
    angle_coeff 527 harmonic 2.73189 111.1
    angle_coeff 528 harmonic 2.73189 111.1
    angle_coeff 529 harmonic 2.73189 111.1
    angle_coeff 530 harmonic 2.73189 111.1
    angle_coeff 531 harmonic 2.73189 111.1
    angle_coeff 532 harmonic 2.73189 111.1
    angle_coeff 533 harmonic 2.73189 111.1
    angle_coeff 534 harmonic 2.73189 111.1
    angle_coeff 535 harmonic 2.73189 111.1
    angle_coeff 536 harmonic 2.73189 111.1
    angle_coeff 537 harmonic 2.73189 111.1
    angle_coeff 538 harmonic 2.73189 111.1
    angle_coeff 539 harmonic 2.73189 111.1
    angle_coeff 540 harmonic 2.73189 111.1
    angle_coeff 541 harmonic 2.73189 111.1
    angle_coeff 542 harmonic 2.73189 111.1
    angle_coeff 543 harmonic 2.73189 111.1
    angle_coeff 544 harmonic 2.73189 111.1
    angle_coeff 545 harmonic 2.73189 111.1
    angle_coeff 546 harmonic 2.73189 111.1
    angle_coeff 547 harmonic 2.73189 111.1
    angle_coeff 548 harmonic 2.73189 111.1
    angle_coeff 549 harmonic 2.73189 111.1
    angle_coeff 550 harmonic 2.73189 111.1
    angle_coeff 551 harmonic 2.73189 111.1
    angle_coeff 552 harmonic 2.73189 111.1
    angle_coeff 553 harmonic 2.73189 111.1
    angle_coeff 554 harmonic 2.73189 111.1
    angle_coeff 555 harmonic 2.73189 111.1
    angle_coeff 556 harmonic 2.73189 111.1
    angle_coeff 557 harmonic 2.73189 111.1
    angle_coeff 558 harmonic 2.73189 111.1
    angle_coeff 559 harmonic 2.73189 111.1
    angle_coeff 560 harmonic 2.73189 111.1
    angle_coeff 561 harmonic 2.73189 111.1
    angle_coeff 562 harmonic 2.73189 111.1
    angle_coeff 563 harmonic 2.16817 109.5
    angle_coeff 564 harmonic 2.16817 109.5
    angle_coeff 565 harmonic 2.16817 109.5
    angle_coeff 566 harmonic 2.16817 109.5
    angle_coeff 567 harmonic 2.16817 109.5
    angle_coeff 568 harmonic 2.16817 109.5
    angle_coeff 569 harmonic 2.16817 109.5
    angle_coeff 570 harmonic 2.16817 109.5
    angle_coeff 571 harmonic 2.16817 109.5
    angle_coeff 572 harmonic 2.16817 109.5
    angle_coeff 573 harmonic 2.16817 109.5
    angle_coeff 574 harmonic 2.16817 109.5
    angle_coeff 575 harmonic 2.16817 109.5
    angle_coeff 576 harmonic 2.16817 109.5
    angle_coeff 577 harmonic 2.16817 109.5
    angle_coeff 578 harmonic 2.16817 109.5
    angle_coeff 579 harmonic 2.16817 109.5
    angle_coeff 580 harmonic 2.16817 109.5
    angle_coeff 581 harmonic 2.16817 109.5
    angle_coeff 582 harmonic 2.16817 109.5
    angle_coeff 583 harmonic 2.16817 109.5
    angle_coeff 584 harmonic 2.16817 109.5
    angle_coeff 585 harmonic 2.16817 109.5
    angle_coeff 586 harmonic 2.16817 109.5
    angle_coeff 587 harmonic 2.16817 109.5
    angle_coeff 588 harmonic 2.16817 109.5
    angle_coeff 589 harmonic 2.16817 109.5
    angle_coeff 590 harmonic 2.16817 109.5
    angle_coeff 591 harmonic 2.16817 109.5
    angle_coeff 592 harmonic 2.16817 109.5
    angle_coeff 593 harmonic 2.16817 109.5
    angle_coeff 594 harmonic 2.16817 109.5
    angle_coeff 595 harmonic 2.16817 109.5
    angle_coeff 596 harmonic 2.16817 109.5
    angle_coeff 597 harmonic 2.16817 109.5
    angle_coeff 598 harmonic 2.16817 109.5
    angle_coeff 599 harmonic 2.16817 109.5
    angle_coeff 600 harmonic 2.16817 109.5
    angle_coeff 601 harmonic 2.16817 109.5
    angle_coeff 602 harmonic 2.16817 109.5
    angle_coeff 603 harmonic 2.16817 109.5
    angle_coeff 604 harmonic 2.16817 109.5
    angle_coeff 605 harmonic 2.16817 109.5
    angle_coeff 606 harmonic 2.16817 109.5
    angle_coeff 607 harmonic 2.16817 109.5
    angle_coeff 608 harmonic 2.16817 109.5
    angle_coeff 609 harmonic 2.16817 109.5
    angle_coeff 610 harmonic 2.16817 109.5
    angle_coeff 611 harmonic 2.16817 109.5
    angle_coeff 612 harmonic 2.16817 109.5
    angle_coeff 613 harmonic 2.53025 112.7
    angle_coeff 614 harmonic 2.53025 112.7
    angle_coeff 615 harmonic 2.53025 112.7
    angle_coeff 616 harmonic 2.53025 112.7
    angle_coeff 617 harmonic 2.53025 112.7
    angle_coeff 618 harmonic 2.53025 112.7
    angle_coeff 619 harmonic 2.53025 112.7
    angle_coeff 620 harmonic 2.53025 112.7
    angle_coeff 621 harmonic 2.53025 112.7
    angle_coeff 622 harmonic 2.53025 112.7
    angle_coeff 623 harmonic 2.53025 112.7
    angle_coeff 624 harmonic 2.53025 112.7
    angle_coeff 625 harmonic 2.53025 112.7
    angle_coeff 626 harmonic 2.53025 112.7
    angle_coeff 627 harmonic 2.53025 112.7
    angle_coeff 628 harmonic 2.53025 112.7
    angle_coeff 629 harmonic 2.53025 112.7
    angle_coeff 630 harmonic 2.53025 112.7
    angle_coeff 631 harmonic 2.53025 112.7
    angle_coeff 632 harmonic 2.53025 112.7
    angle_coeff 633 harmonic 2.53025 112.7
    angle_coeff 634 harmonic 2.53025 112.7
    angle_coeff 635 harmonic 2.53025 112.7
    angle_coeff 636 harmonic 2.53025 112.7
    angle_coeff 637 harmonic 2.53025 112.7
    angle_coeff 638 harmonic 2.53025 112.7
    angle_coeff 639 harmonic 2.53025 112.7
    angle_coeff 640 harmonic 2.53025 112.7
    angle_coeff 641 harmonic 2.53025 112.7
    angle_coeff 642 harmonic 2.53025 112.7
    angle_coeff 643 harmonic 2.53025 112.7
    angle_coeff 644 harmonic 2.53025 112.7
    angle_coeff 645 harmonic 2.53025 112.7
    angle_coeff 646 harmonic 2.53025 112.7
    angle_coeff 647 harmonic 2.53025 112.7
    angle_coeff 648 harmonic 2.53025 112.7
    angle_coeff 649 harmonic 2.53025 112.7
    angle_coeff 650 harmonic 2.53025 112.7
    angle_coeff 651 harmonic 2.53025 112.7
    angle_coeff 652 harmonic 2.53025 112.7
    angle_coeff 653 harmonic 2.53025 112.7
    angle_coeff 654 harmonic 2.53025 112.7
    angle_coeff 655 harmonic 2.53025 112.7
    angle_coeff 656 harmonic 2.53025 112.7
    angle_coeff 657 harmonic 2.53025 112.7
    angle_coeff 658 harmonic 2.53025 112.7
    angle_coeff 659 harmonic 2.53025 112.7
    angle_coeff 660 harmonic 2.53025 112.7
    angle_coeff 661 harmonic 2.53025 112.7
    angle_coeff 662 harmonic 2.53025 112.7
    angle_coeff 663 harmonic 2.53025 112.7
    angle_coeff 664 harmonic 2.53025 112.7
    angle_coeff 665 harmonic 2.53025 112.7
    angle_coeff 666 harmonic 2.53025 112.7
    angle_coeff 667 harmonic 2.53025 112.7
    angle_coeff 668 harmonic 2.53025 112.7
    angle_coeff 669 harmonic 2.53025 112.7
    angle_coeff 670 harmonic 2.53025 112.7
    angle_coeff 671 harmonic 2.53025 112.7
    angle_coeff 672 harmonic 2.53025 112.7
    angle_coeff 673 harmonic 2.53025 112.7
    angle_coeff 674 harmonic 2.53025 112.7
    angle_coeff 675 harmonic 2.53025 112.7
    angle_coeff 676 harmonic 2.53025 112.7
    angle_coeff 677 harmonic 2.53025 112.7
    angle_coeff 678 harmonic 2.53025 112.7
    angle_coeff 679 harmonic 2.53025 112.7
    angle_coeff 680 harmonic 2.53025 112.7
    angle_coeff 681 harmonic 2.53025 112.7
    angle_coeff 682 harmonic 2.53025 112.7
    angle_coeff 683 harmonic 2.53025 112.7
    angle_coeff 684 harmonic 2.53025 112.7
    angle_coeff 685 harmonic 2.53025 112.7
    angle_coeff 686 harmonic 2.53025 112.7
    angle_coeff 687 harmonic 2.53025 112.7
    angle_coeff 688 harmonic 2.53025 112.7
    angle_coeff 689 harmonic 2.53025 112.7
    angle_coeff 690 harmonic 2.53025 112.7
    angle_coeff 691 harmonic 2.53025 112.7
    angle_coeff 692 harmonic 2.53025 112.7
    angle_coeff 693 harmonic 2.53025 112.7
    angle_coeff 694 harmonic 2.53025 112.7
    angle_coeff 695 harmonic 2.53025 112.7
    angle_coeff 696 harmonic 2.53025 112.7
    angle_coeff 697 harmonic 2.53025 112.7
    angle_coeff 698 harmonic 2.53025 112.7
    angle_coeff 699 harmonic 2.53025 112.7
    angle_coeff 700 harmonic 2.53025 112.7
    angle_coeff 701 harmonic 2.53025 112.7
    angle_coeff 702 harmonic 2.53025 112.7
    angle_coeff 703 harmonic 2.53025 112.7
    angle_coeff 704 harmonic 2.53025 112.7
    angle_coeff 705 harmonic 2.53025 112.7
    angle_coeff 706 harmonic 2.53025 112.7
    angle_coeff 707 harmonic 2.53025 112.7
    angle_coeff 708 harmonic 2.53025 112.7
    angle_coeff 709 harmonic 2.53025 112.7
    angle_coeff 710 harmonic 2.53025 112.7
    angle_coeff 711 harmonic 2.53025 112.7
    angle_coeff 712 harmonic 2.53025 112.7
    angle_coeff 713 harmonic 2.53025 112.7
    angle_coeff 714 harmonic 2.53025 112.7
    angle_coeff 715 harmonic 2.53025 112.7
    angle_coeff 716 harmonic 2.53025 112.7
    angle_coeff 717 harmonic 2.53025 112.7
    angle_coeff 718 harmonic 2.53025 112.7
    angle_coeff 719 harmonic 2.53025 112.7
    angle_coeff 720 harmonic 2.53025 112.7
    angle_coeff 721 harmonic 2.53025 112.7
    angle_coeff 722 harmonic 2.53025 112.7
    angle_coeff 723 harmonic 2.53025 112.7
    angle_coeff 724 harmonic 2.53025 112.7
    angle_coeff 725 harmonic 2.53025 112.7
    angle_coeff 726 harmonic 2.53025 112.7
    angle_coeff 727 harmonic 2.53025 112.7
    angle_coeff 728 harmonic 2.53025 112.7
    angle_coeff 729 harmonic 2.53025 112.7
    angle_coeff 730 harmonic 2.53025 112.7
    angle_coeff 731 harmonic 2.53025 112.7
    angle_coeff 732 harmonic 2.53025 112.7
    angle_coeff 733 harmonic 2.53025 112.7
    angle_coeff 734 harmonic 2.53025 112.7
    angle_coeff 735 harmonic 2.53025 112.7
    angle_coeff 736 harmonic 2.53025 112.7
    angle_coeff 737 harmonic 2.53025 112.7
    angle_coeff 738 harmonic 2.73189 111.1
    angle_coeff 739 harmonic 2.73189 111.1
    angle_coeff 740 harmonic 2.73189 111.1
    angle_coeff 741 harmonic 2.73189 111.1
    angle_coeff 742 harmonic 2.73189 111.1
    angle_coeff 743 harmonic 2.73189 111.1
    angle_coeff 744 harmonic 2.73189 111.1
    angle_coeff 745 harmonic 2.73189 111.1
    angle_coeff 746 harmonic 2.73189 111.1
    angle_coeff 747 harmonic 2.73189 111.1
    angle_coeff 748 harmonic 2.73189 111.1
    angle_coeff 749 harmonic 2.73189 111.1
    angle_coeff 750 harmonic 2.73189 111.1
    angle_coeff 751 harmonic 2.73189 111.1
    angle_coeff 752 harmonic 2.73189 111.1
    angle_coeff 753 harmonic 2.73189 111.1
    angle_coeff 754 harmonic 2.73189 111.1
    angle_coeff 755 harmonic 2.73189 111.1
    angle_coeff 756 harmonic 2.73189 111.1
    angle_coeff 757 harmonic 2.73189 111.1
    angle_coeff 758 harmonic 2.73189 111.1
    angle_coeff 759 harmonic 2.73189 111.1
    angle_coeff 760 harmonic 2.73189 111.1
    angle_coeff 761 harmonic 2.73189 111.1
    angle_coeff 762 harmonic 2.73189 111.1
    angle_coeff 763 harmonic 2.73189 111.1
    angle_coeff 764 harmonic 2.73189 111.1
    angle_coeff 765 harmonic 2.73189 111.1
    angle_coeff 766 harmonic 2.73189 111.1
    angle_coeff 767 harmonic 2.73189 111.1
    angle_coeff 768 harmonic 2.73189 111.1
    angle_coeff 769 harmonic 2.73189 111.1
    angle_coeff 770 harmonic 2.73189 111.1
    angle_coeff 771 harmonic 2.73189 111.1
    angle_coeff 772 harmonic 2.73189 111.1
    angle_coeff 773 harmonic 2.73189 111.1
    angle_coeff 774 harmonic 2.73189 111.1
    angle_coeff 775 harmonic 2.73189 111.1
    angle_coeff 776 harmonic 2.73189 111.1
    angle_coeff 777 harmonic 2.73189 111.1
    angle_coeff 778 harmonic 2.73189 111.1
    angle_coeff 779 harmonic 2.73189 111.1
    angle_coeff 780 harmonic 2.73189 111.1
    angle_coeff 781 harmonic 2.73189 111.1
    angle_coeff 782 harmonic 2.73189 111.1
    angle_coeff 783 harmonic 2.73189 111.1
    angle_coeff 784 harmonic 2.73189 111.1
    angle_coeff 785 harmonic 2.73189 111.1
    angle_coeff 786 harmonic 2.73189 111.1
    angle_coeff 787 harmonic 2.73189 111.1
    angle_coeff 788 harmonic 2.73189 111.1
    angle_coeff 789 harmonic 2.73189 111.1
    angle_coeff 790 harmonic 2.73189 111.1
    angle_coeff 791 harmonic 2.73189 111.1
    angle_coeff 792 harmonic 2.73189 111.1
    angle_coeff 793 harmonic 2.73189 111.1
    angle_coeff 794 harmonic 2.73189 111.1
    angle_coeff 795 harmonic 2.73189 111.1
    angle_coeff 796 harmonic 2.73189 111.1
    angle_coeff 797 harmonic 2.73189 111.1
    angle_coeff 798 harmonic 2.73189 111.1
    angle_coeff 799 harmonic 2.73189 111.1
    angle_coeff 800 harmonic 2.73189 111.1
    angle_coeff 801 harmonic 2.73189 111.1
    angle_coeff 802 harmonic 2.73189 111.1
    angle_coeff 803 harmonic 2.73189 111.1
    angle_coeff 804 harmonic 2.73189 111.1
    angle_coeff 805 harmonic 2.73189 111.1
    angle_coeff 806 harmonic 2.73189 111.1
    angle_coeff 807 harmonic 2.73189 111.1
    angle_coeff 808 harmonic 2.73189 111.1
    angle_coeff 809 harmonic 2.73189 111.1
    angle_coeff 810 harmonic 2.73189 111.1
    angle_coeff 811 harmonic 2.73189 111.1
    angle_coeff 812 harmonic 2.73189 111.1
    angle_coeff 813 harmonic 2.16817 109.5
    angle_coeff 814 harmonic 2.16817 109.5
    angle_coeff 815 harmonic 2.16817 109.5
    angle_coeff 816 harmonic 2.16817 109.5
    angle_coeff 817 harmonic 2.16817 109.5
    angle_coeff 818 harmonic 2.16817 109.5
    angle_coeff 819 harmonic 2.16817 109.5
    angle_coeff 820 harmonic 2.16817 109.5
    angle_coeff 821 harmonic 2.16817 109.5
    angle_coeff 822 harmonic 2.16817 109.5
    angle_coeff 823 harmonic 2.16817 109.5
    angle_coeff 824 harmonic 2.16817 109.5
    angle_coeff 825 harmonic 2.16817 109.5
    angle_coeff 826 harmonic 2.16817 109.5
    angle_coeff 827 harmonic 2.16817 109.5
    angle_coeff 828 harmonic 2.16817 109.5
    angle_coeff 829 harmonic 2.16817 109.5
    angle_coeff 830 harmonic 2.16817 109.5
    angle_coeff 831 harmonic 2.16817 109.5
    angle_coeff 832 harmonic 2.16817 109.5
    angle_coeff 833 harmonic 2.16817 109.5
    angle_coeff 834 harmonic 2.16817 109.5
    angle_coeff 835 harmonic 2.16817 109.5
    angle_coeff 836 harmonic 2.16817 109.5
    angle_coeff 837 harmonic 2.16817 109.5
    angle_coeff 838 harmonic 2.16817 109.5
    angle_coeff 839 harmonic 2.16817 109.5
    angle_coeff 840 harmonic 2.16817 109.5
    angle_coeff 841 harmonic 2.16817 109.5
    angle_coeff 842 harmonic 2.16817 109.5
    angle_coeff 843 harmonic 2.16817 109.5
    angle_coeff 844 harmonic 2.16817 109.5
    angle_coeff 845 harmonic 2.16817 109.5
    angle_coeff 846 harmonic 2.16817 109.5
    angle_coeff 847 harmonic 2.16817 109.5
    angle_coeff 848 harmonic 2.16817 109.5
    angle_coeff 849 harmonic 2.16817 109.5
    angle_coeff 850 harmonic 2.16817 109.5
    angle_coeff 851 harmonic 2.16817 109.5
    angle_coeff 852 harmonic 2.16817 109.5
    angle_coeff 853 harmonic 2.16817 109.5
    angle_coeff 854 harmonic 2.16817 109.5
    angle_coeff 855 harmonic 2.16817 109.5
    angle_coeff 856 harmonic 2.16817 109.5
    angle_coeff 857 harmonic 2.16817 109.5
    angle_coeff 858 harmonic 2.73189 110.1
    angle_coeff 859 harmonic 2.73189 110.1
    angle_coeff 860 harmonic 2.73189 110.1
    angle_coeff 861 harmonic 2.73189 110.1
    angle_coeff 862 harmonic 2.73189 110.1
    angle_coeff 863 harmonic 2.73189 110.1
    angle_coeff 864 harmonic 2.73189 110.1
    angle_coeff 865 harmonic 2.73189 110.1
    angle_coeff 866 harmonic 2.73189 110.1
    angle_coeff 867 harmonic 2.73189 110.1
    angle_coeff 868 harmonic 2.73189 110.1
    angle_coeff 869 harmonic 2.73189 110.1
    angle_coeff 870 harmonic 2.73189 110.1
    angle_coeff 871 harmonic 2.73189 110.1
    angle_coeff 872 harmonic 2.73189 110.1
    angle_coeff 873 harmonic 3.46907 109.7
    angle_coeff 874 harmonic 3.46907 109.7
    angle_coeff 875 harmonic 3.46907 109.7
    angle_coeff 876 harmonic 3.46907 109.7
    angle_coeff 877 harmonic 3.46907 109.7
    angle_coeff 878 harmonic 3.46907 109.7
    angle_coeff 879 harmonic 3.46907 109.7
    angle_coeff 880 harmonic 3.46907 109.7
    angle_coeff 881 harmonic 3.46907 109.7
    angle_coeff 882 harmonic 3.46907 109.7
    angle_coeff 883 harmonic 3.46907 109.7
    angle_coeff 884 harmonic 3.46907 109.7
    angle_coeff 885 harmonic 3.46907 109.7
    angle_coeff 886 harmonic 3.46907 109.7
    angle_coeff 887 harmonic 3.46907 109.7
    angle_coeff 888 harmonic 3.46907 109.7
    angle_coeff 889 harmonic 3.46907 109.7
    angle_coeff 890 harmonic 3.46907 109.7
    angle_coeff 891 harmonic 3.46907 109.7
    angle_coeff 892 harmonic 3.46907 109.7
    angle_coeff 893 harmonic 3.46907 109.7
    angle_coeff 894 harmonic 3.46907 109.7
    angle_coeff 895 harmonic 3.46907 109.7
    angle_coeff 896 harmonic 3.46907 109.7
    angle_coeff 897 harmonic 3.46907 109.7
    angle_coeff 898 harmonic 1.43099 107.8
    angle_coeff 899 harmonic 1.43099 107.8
    angle_coeff 900 harmonic 1.43099 107.8
    angle_coeff 901 harmonic 1.43099 107.8
    angle_coeff 902 harmonic 1.43099 107.8
    angle_coeff 903 harmonic 1.43099 107.8
    angle_coeff 904 harmonic 1.43099 107.8
    angle_coeff 905 harmonic 1.43099 107.8
    angle_coeff 906 harmonic 1.43099 107.8
    angle_coeff 907 harmonic 1.43099 107.8
    angle_coeff 908 harmonic 1.43099 107.8
    angle_coeff 909 harmonic 1.43099 107.8
    angle_coeff 910 harmonic 1.43099 107.8
    angle_coeff 911 harmonic 1.43099 107.8
    angle_coeff 912 harmonic 1.43099 107.8
    angle_coeff 913 harmonic 1.43099 107.8
    angle_coeff 914 harmonic 1.43099 107.8
    angle_coeff 915 harmonic 1.43099 107.8
    angle_coeff 916 harmonic 1.43099 107.8
    angle_coeff 917 harmonic 1.43099 107.8
    angle_coeff 918 harmonic 1.43099 107.8
    angle_coeff 919 harmonic 1.43099 107.8
    angle_coeff 920 harmonic 1.43099 107.8
    angle_coeff 921 harmonic 1.43099 107.8
    angle_coeff 922 harmonic 1.43099 107.8
    angle_coeff 923 harmonic 1.43099 107.8
    angle_coeff 924 harmonic 1.43099 107.8
    angle_coeff 925 harmonic 1.43099 107.8
    angle_coeff 926 harmonic 1.43099 107.8
    angle_coeff 927 harmonic 1.43099 107.8
    angle_coeff 928 harmonic 1.43099 107.8
    angle_coeff 929 harmonic 1.43099 107.8
    angle_coeff 930 harmonic 1.43099 107.8
    angle_coeff 931 harmonic 1.43099 107.8
    angle_coeff 932 harmonic 1.43099 107.8
    angle_coeff 933 harmonic 1.43099 107.8
    angle_coeff 934 harmonic 1.43099 107.8
    angle_coeff 935 harmonic 1.43099 107.8
    angle_coeff 936 harmonic 1.43099 107.8
    angle_coeff 937 harmonic 1.43099 107.8
    angle_coeff 938 harmonic 1.43099 107.8
    angle_coeff 939 harmonic 1.43099 107.8
    angle_coeff 940 harmonic 1.43099 107.8
    angle_coeff 941 harmonic 1.43099 107.8
    angle_coeff 942 harmonic 1.43099 107.8
    angle_coeff 943 harmonic 1.51772 109.5
    angle_coeff 944 harmonic 1.51772 109.5
    angle_coeff 945 harmonic 1.51772 109.5
    angle_coeff 946 harmonic 1.51772 109.5
    angle_coeff 947 harmonic 1.51772 109.5
    angle_coeff 948 harmonic 1.51772 109.5
    angle_coeff 949 harmonic 1.51772 109.5
    angle_coeff 950 harmonic 1.51772 109.5
    angle_coeff 951 harmonic 1.51772 109.5
    angle_coeff 952 harmonic 1.51772 109.5
    angle_coeff 953 harmonic 1.51772 109.5
    angle_coeff 954 harmonic 1.51772 109.5
    angle_coeff 955 harmonic 1.51772 109.5
    angle_coeff 956 harmonic 1.51772 109.5
    angle_coeff 957 harmonic 1.51772 109.5
    angle_coeff 958 harmonic 1.51772 109.5
    angle_coeff 959 harmonic 1.51772 109.5
    angle_coeff 960 harmonic 1.51772 109.5
    angle_coeff 961 harmonic 1.51772 109.5
    angle_coeff 962 harmonic 1.51772 109.5
    angle_coeff 963 harmonic 1.51772 109.5
    angle_coeff 964 harmonic 1.51772 109.5
    angle_coeff 965 harmonic 1.51772 109.5
    angle_coeff 966 harmonic 1.51772 109.5
    angle_coeff 967 harmonic 1.51772 109.5
    angle_coeff 968 harmonic 1.51772 109.5
    angle_coeff 969 harmonic 1.51772 109.5
    angle_coeff 970 harmonic 1.51772 109.5
    angle_coeff 971 harmonic 1.51772 109.5
    angle_coeff 972 harmonic 1.51772 109.5
    angle_coeff 973 harmonic 1.51772 109.5
    angle_coeff 974 harmonic 1.51772 109.5
    angle_coeff 975 harmonic 1.51772 109.5
    angle_coeff 976 harmonic 1.51772 109.5
    angle_coeff 977 harmonic 1.51772 109.5
    angle_coeff 978 harmonic 1.51772 109.5
    angle_coeff 979 harmonic 1.51772 109.5
    angle_coeff 980 harmonic 1.51772 109.5
    angle_coeff 981 harmonic 1.51772 109.5
    angle_coeff 982 harmonic 1.51772 109.5
    angle_coeff 983 harmonic 1.51772 109.5
    angle_coeff 984 harmonic 1.51772 109.5
    angle_coeff 985 harmonic 1.51772 109.5
    angle_coeff 986 harmonic 1.51772 109.5
    angle_coeff 987 harmonic 1.51772 109.5
    angle_coeff 988 harmonic 1.51772 109.5
    angle_coeff 989 harmonic 1.51772 109.5
    angle_coeff 990 harmonic 1.51772 109.5
    angle_coeff 991 harmonic 1.51772 109.5
    angle_coeff 992 harmonic 1.51772 109.5
    angle_coeff 993 harmonic 1.51772 109.5
    angle_coeff 994 harmonic 1.51772 109.5
    angle_coeff 995 harmonic 1.51772 109.5
    angle_coeff 996 harmonic 1.51772 109.5
    angle_coeff 997 harmonic 1.51772 109.5
    angle_coeff 998 harmonic 1.51772 109.5
    angle_coeff 999 harmonic 1.51772 109.5
    angle_coeff 1000 harmonic 1.51772 109.5
    angle_coeff 1001 harmonic 1.51772 109.5
    angle_coeff 1002 harmonic 1.51772 109.5
    angle_coeff 1003 harmonic 1.51772 109.5
    angle_coeff 1004 harmonic 1.51772 109.5
    angle_coeff 1005 harmonic 1.51772 109.5
    angle_coeff 1006 harmonic 1.51772 109.5
    angle_coeff 1007 harmonic 1.51772 109.5
    angle_coeff 1008 harmonic 1.51772 109.5
    angle_coeff 1009 harmonic 1.51772 109.5
    angle_coeff 1010 harmonic 1.51772 109.5
    angle_coeff 1011 harmonic 1.51772 109.5
    angle_coeff 1012 harmonic 1.51772 109.5
    angle_coeff 1013 harmonic 1.51772 109.5
    angle_coeff 1014 harmonic 1.51772 109.5
    angle_coeff 1015 harmonic 1.51772 109.5
    angle_coeff 1016 harmonic 1.51772 109.5
    angle_coeff 1017 harmonic 1.51772 109.5
    angle_coeff 1018 harmonic 1.51772 109.5
    angle_coeff 1019 harmonic 1.51772 109.5
    angle_coeff 1020 harmonic 1.51772 109.5
    angle_coeff 1021 harmonic 1.51772 109.5
    angle_coeff 1022 harmonic 1.51772 109.5
    angle_coeff 1023 harmonic 1.51772 109.5
    angle_coeff 1024 harmonic 1.51772 109.5
    angle_coeff 1025 harmonic 1.51772 109.5
    angle_coeff 1026 harmonic 1.51772 109.5
    angle_coeff 1027 harmonic 1.51772 109.5
    angle_coeff 1028 harmonic 1.51772 109.5
    angle_coeff 1029 harmonic 1.51772 109.5
    angle_coeff 1030 harmonic 1.51772 109.5
    angle_coeff 1031 harmonic 1.51772 109.5
    angle_coeff 1032 harmonic 1.51772 109.5
    angle_coeff 1033 harmonic 1.51772 109.5
    angle_coeff 1034 harmonic 1.51772 109.5
    angle_coeff 1035 harmonic 1.51772 109.5
    angle_coeff 1036 harmonic 1.51772 109.5
    angle_coeff 1037 harmonic 1.51772 109.5
    angle_coeff 1038 harmonic 1.51772 109.5
    angle_coeff 1039 harmonic 1.51772 109.5
    angle_coeff 1040 harmonic 1.51772 109.5
    angle_coeff 1041 harmonic 1.51772 109.5
    angle_coeff 1042 harmonic 1.51772 109.5
    angle_coeff 1043 harmonic 1.51772 109.5
    angle_coeff 1044 harmonic 1.51772 109.5
    angle_coeff 1045 harmonic 1.51772 109.5
    angle_coeff 1046 harmonic 1.51772 109.5
    angle_coeff 1047 harmonic 1.51772 109.5
    angle_coeff 1048 harmonic 1.62613 110.7
    angle_coeff 1049 harmonic 1.62613 110.7
    angle_coeff 1050 harmonic 1.62613 110.7
    angle_coeff 1051 harmonic 1.62613 110.7
    angle_coeff 1052 harmonic 1.62613 110.7
    angle_coeff 1053 harmonic 1.62613 110.7
    angle_coeff 1054 harmonic 1.62613 110.7
    angle_coeff 1055 harmonic 1.62613 110.7
    angle_coeff 1056 harmonic 1.62613 110.7
    angle_coeff 1057 harmonic 1.62613 110.7
    angle_coeff 1058 harmonic 1.62613 110.7
    angle_coeff 1059 harmonic 1.62613 110.7
    angle_coeff 1060 harmonic 1.62613 110.7
    angle_coeff 1061 harmonic 1.62613 110.7
    angle_coeff 1062 harmonic 1.62613 110.7
    angle_coeff 1063 harmonic 1.62613 110.7
    angle_coeff 1064 harmonic 1.62613 110.7
    angle_coeff 1065 harmonic 1.62613 110.7
    angle_coeff 1066 harmonic 1.62613 110.7
    angle_coeff 1067 harmonic 1.62613 110.7
    angle_coeff 1068 harmonic 1.62613 110.7
    angle_coeff 1069 harmonic 1.62613 110.7
    angle_coeff 1070 harmonic 1.62613 110.7
    angle_coeff 1071 harmonic 1.62613 110.7
    angle_coeff 1072 harmonic 1.62613 110.7
    angle_coeff 1073 harmonic 1.62613 110.7
    angle_coeff 1074 harmonic 1.62613 110.7
    angle_coeff 1075 harmonic 1.62613 110.7
    angle_coeff 1076 harmonic 1.62613 110.7
    angle_coeff 1077 harmonic 1.62613 110.7
    angle_coeff 1078 harmonic 1.62613 110.7
    angle_coeff 1079 harmonic 1.62613 110.7
    angle_coeff 1080 harmonic 1.62613 110.7
    angle_coeff 1081 harmonic 1.62613 110.7
    angle_coeff 1082 harmonic 1.62613 110.7
    angle_coeff 1083 harmonic 1.62613 110.7
    angle_coeff 1084 harmonic 1.62613 110.7
    angle_coeff 1085 harmonic 1.62613 110.7
    angle_coeff 1086 harmonic 1.62613 110.7
    angle_coeff 1087 harmonic 1.62613 110.7
    angle_coeff 1088 harmonic 1.62613 110.7
    angle_coeff 1089 harmonic 1.62613 110.7
    angle_coeff 1090 harmonic 1.62613 110.7
    angle_coeff 1091 harmonic 1.62613 110.7
    angle_coeff 1092 harmonic 1.62613 110.7
    angle_coeff 1093 harmonic 1.62613 110.7
    angle_coeff 1094 harmonic 1.62613 110.7
    angle_coeff 1095 harmonic 1.62613 110.7
    angle_coeff 1096 harmonic 1.62613 110.7
    angle_coeff 1097 harmonic 1.62613 110.7
    angle_coeff 1098 harmonic 1.62613 110.7
    angle_coeff 1099 harmonic 1.62613 110.7
    angle_coeff 1100 harmonic 1.62613 110.7
    angle_coeff 1101 harmonic 1.62613 110.7
    angle_coeff 1102 harmonic 1.62613 110.7
    angle_coeff 1103 harmonic 1.62613 110.7
    angle_coeff 1104 harmonic 1.62613 110.7
    angle_coeff 1105 harmonic 1.62613 110.7
    angle_coeff 1106 harmonic 1.62613 110.7
    angle_coeff 1107 harmonic 1.62613 110.7
    angle_coeff 1108 harmonic 1.62613 110.7
    angle_coeff 1109 harmonic 1.62613 110.7
    angle_coeff 1110 harmonic 1.62613 110.7
    angle_coeff 1111 harmonic 1.62613 110.7
    angle_coeff 1112 harmonic 1.62613 110.7
    angle_coeff 1113 harmonic 1.62613 110.7
    angle_coeff 1114 harmonic 1.62613 110.7
    angle_coeff 1115 harmonic 1.62613 110.7
    angle_coeff 1116 harmonic 1.62613 110.7
    angle_coeff 1117 harmonic 1.62613 110.7
    angle_coeff 1118 harmonic 1.62613 110.7
    angle_coeff 1119 harmonic 1.62613 110.7
    angle_coeff 1120 harmonic 1.62613 110.7
    angle_coeff 1121 harmonic 1.62613 110.7
    angle_coeff 1122 harmonic 1.62613 110.7
    angle_coeff 1123 harmonic 1.51772 109.5
    angle_coeff 1124 harmonic 1.51772 109.5
    angle_coeff 1125 harmonic 1.51772 109.5
    angle_coeff 1126 harmonic 1.51772 109.5
    angle_coeff 1127 harmonic 1.51772 109.5
    angle_coeff 1128 harmonic 1.51772 109.5
    angle_coeff 1129 harmonic 1.51772 109.5
    angle_coeff 1130 harmonic 1.51772 109.5
    angle_coeff 1131 harmonic 1.51772 109.5
    angle_coeff 1132 harmonic 1.51772 109.5
    angle_coeff 1133 harmonic 1.51772 109.5
    angle_coeff 1134 harmonic 1.51772 109.5
    angle_coeff 1135 harmonic 1.51772 109.5
    angle_coeff 1136 harmonic 1.51772 109.5
    angle_coeff 1137 harmonic 1.51772 109.5
    angle_coeff 1138 harmonic 2.73189 111.1
    angle_coeff 1139 harmonic 2.73189 111.1
    angle_coeff 1140 harmonic 2.73189 111.1
    angle_coeff 1141 harmonic 2.73189 111.1
    angle_coeff 1142 harmonic 2.73189 111.1
    angle_coeff 1143 harmonic 2.73189 111.1
    angle_coeff 1144 harmonic 2.73189 111.1
    angle_coeff 1145 harmonic 2.73189 111.1
    angle_coeff 1146 harmonic 2.73189 111.1
    angle_coeff 1147 harmonic 2.73189 111.1
    angle_coeff 1148 harmonic 2.73189 111.1
    angle_coeff 1149 harmonic 2.73189 111.1
    angle_coeff 1150 harmonic 2.73189 111.1
    angle_coeff 1151 harmonic 2.73189 111.1
    angle_coeff 1152 harmonic 2.73189 111.1
    angle_coeff 1153 harmonic 2.73189 111.1
    angle_coeff 1154 harmonic 2.73189 111.1
    angle_coeff 1155 harmonic 2.73189 111.1
    angle_coeff 1156 harmonic 2.73189 111.1
    angle_coeff 1157 harmonic 2.73189 111.1
    angle_coeff 1158 harmonic 2.73189 111.1
    angle_coeff 1159 harmonic 2.73189 111.1
    angle_coeff 1160 harmonic 2.73189 111.1
    angle_coeff 1161 harmonic 2.73189 111.1
    angle_coeff 1162 harmonic 2.73189 111.1
    angle_coeff 1163 harmonic 2.73189 112.4
    angle_coeff 1164 harmonic 2.73189 112.4
    angle_coeff 1165 harmonic 2.73189 112.4
    angle_coeff 1166 harmonic 2.73189 112.4
    angle_coeff 1167 harmonic 2.73189 112.4
    angle_coeff 1168 harmonic 2.6018 109.5
    angle_coeff 1169 harmonic 2.6018 109.5
    angle_coeff 1170 harmonic 2.6018 109.5
    angle_coeff 1171 harmonic 2.6018 109.5
    angle_coeff 1172 harmonic 2.6018 109.5
    angle_coeff 1173 harmonic 2.6018 109.5
    angle_coeff 1174 harmonic 2.6018 109.5
    angle_coeff 1175 harmonic 2.6018 109.5
    angle_coeff 1176 harmonic 2.6018 109.5
    angle_coeff 1177 harmonic 2.6018 109.5
    angle_coeff 1178 harmonic 2.6018 109.5
    angle_coeff 1179 harmonic 2.6018 109.5
    angle_coeff 1180 harmonic 2.6018 109.5
    angle_coeff 1181 harmonic 2.6018 109.5
    angle_coeff 1182 harmonic 2.6018 109.5
    angle_coeff 1183 harmonic 2.6018 109.5
    angle_coeff 1184 harmonic 2.6018 109.5
    angle_coeff 1185 harmonic 2.6018 109.5
    angle_coeff 1186 harmonic 2.6018 109.5
    angle_coeff 1187 harmonic 2.6018 109.5
    angle_coeff 1188 harmonic 2.6018 109.5
    angle_coeff 1189 harmonic 2.6018 109.5
    angle_coeff 1190 harmonic 2.6018 109.5
    angle_coeff 1191 harmonic 2.6018 109.5
    angle_coeff 1192 harmonic 2.6018 109.5
    angle_coeff 1193 harmonic 3.59916 116.9
    angle_coeff 1194 harmonic 3.59916 116.9
    angle_coeff 1195 harmonic 3.59916 116.9
    angle_coeff 1196 harmonic 3.59916 116.9
    angle_coeff 1197 harmonic 3.59916 116.9
    angle_coeff 1198 harmonic 3.59916 116.9
    angle_coeff 1199 harmonic 3.59916 116.9
    angle_coeff 1200 harmonic 3.59916 116.9
    angle_coeff 1201 harmonic 3.59916 116.9
    angle_coeff 1202 harmonic 3.59916 116.9
    angle_coeff 1203 harmonic 3.59916 116.9
    angle_coeff 1204 harmonic 3.59916 116.9
    angle_coeff 1205 harmonic 3.59916 116.9
    angle_coeff 1206 harmonic 3.59916 116.9
    angle_coeff 1207 harmonic 3.59916 116.9
    angle_coeff 1208 harmonic 3.25226 111.0
    angle_coeff 1209 harmonic 3.25226 111.0
    angle_coeff 1210 harmonic 3.25226 111.0
    angle_coeff 1211 harmonic 3.25226 111.0
    angle_coeff 1212 harmonic 3.25226 111.0
    angle_coeff 1213 harmonic 3.03544 126.4
    angle_coeff 1214 harmonic 3.03544 126.4
    angle_coeff 1215 harmonic 3.03544 126.4
    angle_coeff 1216 harmonic 3.03544 126.4
    angle_coeff 1217 harmonic 3.03544 126.4
    angle_coeff 1218 harmonic 3.03544 126.4
    angle_coeff 1219 harmonic 3.03544 126.4
    angle_coeff 1220 harmonic 3.03544 126.4
    angle_coeff 1221 harmonic 3.03544 126.4
    angle_coeff 1222 harmonic 1.99472 115.7
    angle_coeff 1223 harmonic 1.99472 115.7
    angle_coeff 1224 harmonic 1.99472 115.7
    angle_coeff 1225 harmonic 1.99472 115.7
    angle_coeff 1226 harmonic 1.99472 115.7
    angle_coeff 1227 harmonic 1.99472 115.7
    angle_coeff 1228 harmonic 2.16817 118.0
    angle_coeff 1229 harmonic 2.16817 118.0
    angle_coeff 1230 harmonic 2.16817 118.0
    angle_coeff 1231 harmonic 2.16817 118.0
    angle_coeff 1232 harmonic 2.16817 118.0
    angle_coeff 1233 harmonic 2.16817 118.0
    angle_coeff 1234 harmonic 2.16817 118.0
    angle_coeff 1235 harmonic 2.16817 118.0
    angle_coeff 1236 harmonic 2.16817 118.0
    angle_coeff 1237 harmonic 2.16817 118.0
    angle_coeff 1238 harmonic 2.16817 118.0
    angle_coeff 1239 harmonic 2.16817 118.0
    angle_coeff 1240 harmonic 2.16817 118.0
    angle_coeff 1241 harmonic 2.16817 118.0
    angle_coeff 1242 harmonic 2.16817 118.0
    angle_coeff 1243 harmonic 2.16817 118.0
    angle_coeff 1244 harmonic 2.16817 118.0
    angle_coeff 1245 harmonic 2.16817 118.0
    angle_coeff 1246 harmonic 2.16817 118.0
    angle_coeff 1247 harmonic 2.16817 118.0
    angle_coeff 1248 harmonic 2.16817 118.0
    angle_coeff 1249 harmonic 2.16817 118.0
    angle_coeff 1250 harmonic 2.16817 118.0
    angle_coeff 1251 harmonic 2.16817 118.0
    angle_coeff 1252 harmonic 2.16817 118.0
    angle_coeff 1253 harmonic 2.16817 121.9
    angle_coeff 1254 harmonic 2.16817 121.9
    angle_coeff 1255 harmonic 2.16817 121.9
    angle_coeff 1256 harmonic 2.16817 121.9
    angle_coeff 1257 harmonic 2.16817 121.9
    angle_coeff 1258 harmonic 2.16817 121.9
    angle_coeff 1259 harmonic 2.16817 121.9
    angle_coeff 1260 harmonic 2.16817 121.9
    angle_coeff 1261 harmonic 2.16817 121.9
    angle_coeff 1262 harmonic 2.16817 121.9
    angle_coeff 1263 harmonic 2.16817 121.9
    angle_coeff 1264 harmonic 2.16817 121.9
    angle_coeff 1265 harmonic 2.16817 121.9
    angle_coeff 1266 harmonic 2.16817 121.9
    angle_coeff 1267 harmonic 2.16817 121.9
    angle_coeff 1268 harmonic 3.03544 108.6
    angle_coeff 1269 harmonic 3.03544 108.6
    angle_coeff 1270 harmonic 3.03544 108.6
    angle_coeff 1271 harmonic 1.51772 110.2
    angle_coeff 1272 harmonic 1.51772 110.2
    angle_coeff 1273 harmonic 1.51772 119.8
    angle_coeff 1274 harmonic 1.51772 119.8
    angle_coeff 1275 harmonic 1.51772 119.8
    angle_coeff 1276 harmonic 1.51772 120.0
    angle_coeff 1277 harmonic 1.64781 118.4
    angle_coeff 1278 harmonic 1.64781 118.4
    angle_coeff 1279 harmonic 1.64781 118.4
    angle_coeff 1280 harmonic 1.64781 118.4
    angle_coeff 1281 harmonic 1.64781 118.4
    angle_coeff 1282 harmonic 3.03544 119.7
    angle_coeff 1283 harmonic 3.03544 119.7
    angle_coeff 1284 harmonic 3.03544 119.7
    angle_coeff 1285 harmonic 3.03544 119.7
    angle_coeff 1286 harmonic 3.03544 119.7
    angle_coeff 1287 harmonic 3.03544 119.7
    angle_coeff 1288 harmonic 3.03544 119.7
    angle_coeff 1289 harmonic 3.03544 119.7
    angle_coeff 1290 harmonic 3.03544 119.7
    angle_coeff 1291 harmonic 3.03544 119.7
    angle_coeff 1292 harmonic 3.03544 119.7
    angle_coeff 1293 harmonic 3.03544 119.7
    angle_coeff 1294 harmonic 3.03544 119.7
    angle_coeff 1295 harmonic 3.03544 119.7
    angle_coeff 1296 harmonic 3.03544 119.7
    angle_coeff 1297 harmonic 3.03544 130.0
    angle_coeff 1298 harmonic 3.03544 130.0
    angle_coeff 1299 harmonic 3.03544 130.0
    angle_coeff 1300 harmonic 3.03544 130.0
    angle_coeff 1301 harmonic 3.03544 130.0
    angle_coeff 1302 harmonic 3.03544 130.0
    angle_coeff 1303 harmonic 3.03544 130.0
    angle_coeff 1304 harmonic 3.03544 130.0
    angle_coeff 1305 harmonic 3.03544 130.0
    angle_coeff 1306 harmonic 3.03544 130.0
    angle_coeff 1307 harmonic 3.03544 130.0
    angle_coeff 1308 harmonic 3.03544 130.0
    angle_coeff 1309 harmonic 3.03544 130.0
    angle_coeff 1310 harmonic 3.03544 130.0
    angle_coeff 1311 harmonic 3.03544 130.0
    angle_coeff 1312 harmonic 3.03544 130.0
    angle_coeff 1313 harmonic 3.03544 130.0
    angle_coeff 1314 harmonic 3.03544 130.0
    angle_coeff 1315 harmonic 3.03544 130.0
    angle_coeff 1316 harmonic 3.03544 130.0
    angle_coeff 1317 harmonic 3.03544 130.0
    angle_coeff 1318 harmonic 3.03544 130.0
    angle_coeff 1319 harmonic 3.03544 130.0
    angle_coeff 1320 harmonic 3.03544 130.0
    angle_coeff 1321 harmonic 3.03544 130.0
    angle_coeff 1322 harmonic 1.51772 114.5
    angle_coeff 1323 harmonic 1.51772 114.5
    angle_coeff 1324 harmonic 1.51772 114.5
    angle_coeff 1325 harmonic 1.51772 117.0
    angle_coeff 1326 harmonic 1.51772 117.0
    angle_coeff 1327 harmonic 1.51772 117.0
    angle_coeff 1328 harmonic 1.51772 117.0
    angle_coeff 1329 harmonic 1.51772 117.0
    angle_coeff 1330 harmonic 1.51772 117.0
    angle_coeff 1331 harmonic 1.51772 117.0
    angle_coeff 1332 harmonic 1.51772 117.0
    angle_coeff 1333 harmonic 1.51772 117.0
    angle_coeff 1334 harmonic 1.51772 117.0
    angle_coeff 1335 harmonic 1.51772 117.0
    angle_coeff 1336 harmonic 1.51772 117.0
    angle_coeff 1337 harmonic 1.51772 117.0
    angle_coeff 1338 harmonic 1.51772 117.0
    angle_coeff 1339 harmonic 1.51772 117.0
    angle_coeff 1340 harmonic 1.51772 117.0
    angle_coeff 1341 harmonic 1.51772 117.0
    angle_coeff 1342 harmonic 1.51772 117.0
    angle_coeff 1343 harmonic 1.51772 117.0
    angle_coeff 1344 harmonic 1.51772 117.0
    angle_coeff 1345 harmonic 1.51772 117.0
    angle_coeff 1346 harmonic 1.51772 117.0
    angle_coeff 1347 harmonic 1.51772 117.0
    angle_coeff 1348 harmonic 1.51772 117.0
    angle_coeff 1349 harmonic 1.51772 119.7
    angle_coeff 1350 harmonic 1.51772 119.7
    angle_coeff 1351 harmonic 1.51772 119.7
    angle_coeff 1352 harmonic 1.51772 119.7
    angle_coeff 1353 harmonic 1.51772 119.7
    angle_coeff 1354 harmonic 1.51772 119.7
    angle_coeff 1355 harmonic 1.51772 119.7
    angle_coeff 1356 harmonic 1.51772 119.7
    angle_coeff 1357 harmonic 1.51772 119.7
    angle_coeff 1358 harmonic 1.51772 120.0
    angle_coeff 1359 harmonic 1.51772 120.0
    angle_coeff 1360 harmonic 1.51772 120.0
    angle_coeff 1361 harmonic 3.03544 123.0
    angle_coeff 1362 harmonic 3.03544 123.0
    angle_coeff 1363 harmonic 3.03544 123.0
    angle_coeff 1364 harmonic 3.03544 124.0
    angle_coeff 1365 harmonic 3.03544 124.0
    angle_coeff 1366 harmonic 3.03544 124.0
    angle_coeff 1367 harmonic 3.03544 124.0
    angle_coeff 1368 harmonic 3.03544 124.0
    angle_coeff 1369 harmonic 3.68589 120.7
    angle_coeff 1370 harmonic 3.68589 120.7
    angle_coeff 1371 harmonic 3.68589 120.7
    dihedral_coeff 1 opls 0.0693814 0.138763 0.0 0.0
    dihedral_coeff 2 opls 0.0693814 0.138763 0.0 0.0
    dihedral_coeff 3 opls 0.0693814 0.138763 0.0 0.0
    dihedral_coeff 4 opls 0.0693814 0.138763 0.0 0.0
    dihedral_coeff 5 opls 0.0693814 0.138763 0.0 0.0
    dihedral_coeff 6 opls 0.0693814 0.138763 0.0 0.0
    dihedral_coeff 7 opls 0.0693814 0.138763 0.0 0.0
    dihedral_coeff 8 opls 0.0693814 0.138763 0.0 0.0
    dihedral_coeff 9 opls 0.0693814 0.138763 0.0 0.0
    dihedral_coeff 10 opls 0.0693814 0.138763 0.0 0.0
    dihedral_coeff 11 opls 0.0693814 0.138763 0.0 0.0
    dihedral_coeff 12 opls 0.0693814 0.138763 0.0 0.0
    dihedral_coeff 13 opls 0.0693814 0.138763 0.0 0.0
    dihedral_coeff 14 opls 0.0693814 0.138763 0.0 0.0
    dihedral_coeff 15 opls 0.0693814 0.138763 0.0 0.0
    dihedral_coeff 16 opls 0.0693814 0.138763 0.0 0.0
    dihedral_coeff 17 opls 0.0693814 0.138763 0.0 0.0
    dihedral_coeff 18 opls 0.0693814 0.138763 0.0 0.0
    dihedral_coeff 19 opls 0.0693814 0.138763 0.0 0.0
    dihedral_coeff 20 opls 0.0693814 0.138763 0.0 0.0
    dihedral_coeff 21 opls 0.0693814 0.138763 0.0 0.0
    dihedral_coeff 22 opls 0.0693814 0.138763 0.0 0.0
    dihedral_coeff 23 opls 0.0693814 0.138763 0.0 0.0
    dihedral_coeff 24 opls 0.0693814 0.138763 0.0 0.0
    dihedral_coeff 25 opls 0.0693814 0.138763 0.0 0.0
    dihedral_coeff 26 opls 0.0693814 0.138763 0.0 0.0
    dihedral_coeff 27 opls 0.0693814 0.138763 0.0 0.0
    dihedral_coeff 28 opls 0.0693814 0.138763 0.0 0.0
    dihedral_coeff 29 opls 0.0693814 0.138763 0.0 0.0
    dihedral_coeff 30 opls 0.0693814 0.138763 0.0 0.0
    dihedral_coeff 31 opls 0.0693814 0.138763 0.0 0.0
    dihedral_coeff 32 opls 0.0693814 0.138763 0.0 0.0
    dihedral_coeff 33 opls 0.0693814 0.138763 0.0 0.0
    dihedral_coeff 34 opls 0.0693814 0.138763 0.0 0.0
    dihedral_coeff 35 opls 0.0693814 0.138763 0.0 0.0
    dihedral_coeff 36 opls 0.0693814 0.138763 0.0 0.0
    dihedral_coeff 37 opls 0.0693814 0.138763 0.0 0.0
    dihedral_coeff 38 opls 0.0693814 0.138763 0.0 0.0
    dihedral_coeff 39 opls 0.0693814 0.138763 0.0 0.0
    dihedral_coeff 40 opls 0.0693814 0.138763 0.0 0.0
    dihedral_coeff 41 opls 0.0693814 0.138763 0.0 0.0
    dihedral_coeff 42 opls 0.0693814 0.138763 0.0 0.0
    dihedral_coeff 43 opls 0.0693814 0.138763 0.0 0.0
    dihedral_coeff 44 opls 0.0693814 0.138763 0.0 0.0
    dihedral_coeff 45 opls 0.0693814 0.138763 0.0 0.0
    dihedral_coeff 46 opls 0.0693814 0.138763 0.0 0.0
    dihedral_coeff 47 opls 0.0693814 0.138763 0.0 0.0
    dihedral_coeff 48 opls 0.0693814 0.138763 0.0 0.0
    dihedral_coeff 49 opls 0.0693814 0.138763 0.0 0.0
    dihedral_coeff 50 opls 0.0693814 0.138763 0.0 0.0
    dihedral_coeff 51 opls 0.0693814 0.138763 0.0 0.0
    dihedral_coeff 52 opls 0.0693814 0.138763 0.0 0.0
    dihedral_coeff 53 opls 0.0693814 0.138763 0.0 0.0
    dihedral_coeff 54 opls 0.0693814 0.138763 0.0 0.0
    dihedral_coeff 55 opls 0.0693814 0.138763 0.0 0.0
    dihedral_coeff 56 opls 0.0693814 0.138763 0.0 0.0
    dihedral_coeff 57 opls 0.0693814 0.138763 0.0 0.0
    dihedral_coeff 58 opls 0.0693814 0.138763 0.0 0.0
    dihedral_coeff 59 opls 0.0693814 0.138763 0.0 0.0
    dihedral_coeff 60 opls 0.0693814 0.138763 0.0 0.0
    dihedral_coeff 61 opls 0.0693814 0.138763 0.0 0.0
    dihedral_coeff 62 opls 0.0693814 0.138763 0.0 0.0
    dihedral_coeff 63 opls 0.0693814 0.138763 0.0 0.0
    dihedral_coeff 64 opls 0.0693814 0.138763 0.0 0.0
    dihedral_coeff 65 opls 0.0693814 0.138763 0.0 0.0
    dihedral_coeff 66 opls 0.0693814 0.138763 0.0 0.0
    dihedral_coeff 67 opls 0.0693814 0.138763 0.0 0.0
    dihedral_coeff 68 opls 0.0693814 0.138763 0.0 0.0
    dihedral_coeff 69 opls 0.0693814 0.138763 0.0 0.0
    dihedral_coeff 70 opls 0.0693814 0.138763 0.0 0.0
    dihedral_coeff 71 opls 0.0693814 0.138763 0.0 0.0
    dihedral_coeff 72 opls 0.0693814 0.138763 0.0 0.0
    dihedral_coeff 73 opls 0.0693814 0.138763 0.0 0.0
    dihedral_coeff 74 opls 0.0693814 0.138763 0.0 0.0
    dihedral_coeff 75 opls 0.0693814 0.138763 0.0 0.0
    dihedral_coeff 76 opls 0.0693814 0.138763 0.0 0.0
    dihedral_coeff 77 opls 0.0693814 0.138763 0.0 0.0
    dihedral_coeff 78 opls 0.0693814 0.138763 0.0 0.0
    dihedral_coeff 79 opls 0.0693814 0.138763 0.0 0.0
    dihedral_coeff 80 opls 0.0693814 0.138763 0.0 0.0
    dihedral_coeff 81 opls 0.0693814 0.138763 0.0 0.0
    dihedral_coeff 82 opls 0.0 0.0216817 0.0 0.0
    dihedral_coeff 83 opls 0.0 0.0216817 0.0 0.0
    dihedral_coeff 84 opls 0.0 0.0216817 0.0 0.0
    dihedral_coeff 85 opls 0.0 0.0216817 0.0 0.0
    dihedral_coeff 86 opls 0.0 0.0216817 0.0 0.0
    dihedral_coeff 87 opls 0.0 0.0216817 0.0 0.0
    dihedral_coeff 88 opls 0.0 0.0216817 0.0 0.0
    dihedral_coeff 89 opls 0.0 0.0216817 0.0 0.0
    dihedral_coeff 90 opls 0.0 0.0216817 0.0 0.0
    dihedral_coeff 91 opls 0.0 0.0216817 0.0 0.0
    dihedral_coeff 92 opls 0.0 0.0216817 0.0 0.0
    dihedral_coeff 93 opls 0.0 0.0216817 0.0 0.0
    dihedral_coeff 94 opls 0.0 0.0216817 0.0 0.0
    dihedral_coeff 95 opls 0.0 0.0216817 0.0 0.0
    dihedral_coeff 96 opls 0.0 0.0216817 0.0 0.0
    dihedral_coeff 97 opls 0.0 0.0216817 0.0 0.0
    dihedral_coeff 98 opls 0.0 0.0216817 0.0 0.0
    dihedral_coeff 99 opls 0.0 0.0216817 0.0 0.0
    dihedral_coeff 100 opls 0.0 0.0216817 0.0 0.0
    dihedral_coeff 101 opls 0.0 0.0216817 0.0 0.0
    dihedral_coeff 102 opls 0.0 0.0216817 0.0 0.0
    dihedral_coeff 103 opls 0.0 0.0216817 0.0 0.0
    dihedral_coeff 104 opls 0.0 0.0216817 0.0 0.0
    dihedral_coeff 105 opls 0.0 0.0216817 0.0 0.0
    dihedral_coeff 106 opls 0.0 0.0216817 0.0 0.0
    dihedral_coeff 107 opls 0.0 0.0216817 0.0 0.0
    dihedral_coeff 108 opls 0.0 0.0216817 0.0 0.0
    dihedral_coeff 109 opls 0.0 0.0216817 0.0 0.0
    dihedral_coeff 110 opls 0.0 0.0216817 0.0 0.0
    dihedral_coeff 111 opls 0.0 0.0216817 0.0 0.0
    dihedral_coeff 112 opls 0.0 0.0216817 0.0 0.0
    dihedral_coeff 113 opls 0.0 0.0216817 0.0 0.0
    dihedral_coeff 114 opls 0.0 0.0216817 0.0 0.0
    dihedral_coeff 115 opls 0.0 0.0216817 0.0 0.0
    dihedral_coeff 116 opls 0.0 0.0216817 0.0 0.0
    dihedral_coeff 117 opls 0.0 0.0216817 0.0 0.0
    dihedral_coeff 118 opls 0.0 0.0216817 0.0 0.0
    dihedral_coeff 119 opls 0.0 0.0216817 0.0 0.0
    dihedral_coeff 120 opls 0.0 0.0216817 0.0 0.0
    dihedral_coeff 121 opls 0.0 0.0216817 0.0 0.0
    dihedral_coeff 122 opls 0.0 0.0216817 0.0 0.0
    dihedral_coeff 123 opls 0.0 0.0216817 0.0 0.0
    dihedral_coeff 124 opls 0.0 0.0216817 0.0 0.0
    dihedral_coeff 125 opls 0.0 0.0216817 0.0 0.0
    dihedral_coeff 126 opls 0.0 0.0216817 0.0 0.0
    dihedral_coeff 127 opls 0.0 0.0216817 0.0 0.0
    dihedral_coeff 128 opls 0.0 0.0216817 0.0 0.0
    dihedral_coeff 129 opls 0.0 0.0216817 0.0 0.0
    dihedral_coeff 130 opls 0.0 0.0216817 0.0 0.0
    dihedral_coeff 131 opls 0.0 0.0216817 0.0 0.0
    dihedral_coeff 132 opls 0.0 0.0216817 0.0 0.0
    dihedral_coeff 133 opls 0.0 0.0216817 0.0 0.0
    dihedral_coeff 134 opls 0.0 0.0216817 0.0 0.0
    dihedral_coeff 135 opls 0.0 0.0216817 0.0 0.0
    dihedral_coeff 136 opls 0.0 0.0216817 0.0 0.0
    dihedral_coeff 137 opls 0.0 0.0216817 0.0 0.0
    dihedral_coeff 138 opls 0.0 0.0216817 0.0 0.0
    dihedral_coeff 139 opls 0.0 0.0216817 0.0 0.0
    dihedral_coeff 140 opls 0.0 0.0216817 0.0 0.0
    dihedral_coeff 141 opls 0.0 0.0216817 0.0 0.0
    dihedral_coeff 142 opls 0.0 0.0216817 0.0 0.0
    dihedral_coeff 143 opls 0.0 0.0216817 0.0 0.0
    dihedral_coeff 144 opls 0.0 0.0216817 0.0 0.0
    dihedral_coeff 145 opls 0.0 0.0216817 0.0 0.0
    dihedral_coeff 146 opls 0.0 0.0216817 0.0 0.0
    dihedral_coeff 147 opls 0.0 0.0216817 0.0 0.0
    dihedral_coeff 148 opls 0.0 0.0216817 0.0 0.0
    dihedral_coeff 149 opls 0.0 0.0216817 0.0 0.0
    dihedral_coeff 150 opls 0.0 0.0216817 0.0 0.0
    dihedral_coeff 151 opls 0.0 0.0216817 0.0 0.0
    dihedral_coeff 152 opls 0.0 0.0216817 0.0 0.0
    dihedral_coeff 153 opls 0.0 0.0216817 0.0 0.0
    dihedral_coeff 154 opls 0.0 0.0216817 0.0 0.0
    dihedral_coeff 155 opls 0.0 0.0216817 0.0 0.0
    dihedral_coeff 156 opls 0.0 0.0216817 0.0 0.0
    dihedral_coeff 157 opls 0.0 0.0216817 0.0 0.0
    dihedral_coeff 158 opls 0.0 0.0216817 0.0 0.0
    dihedral_coeff 159 opls 0.0 0.0216817 0.0 0.0
[...]
Step     =        4974000 TotEng   =     12160.2264 KinEng   =      5119.2466 
PotEng   =      7040.9799 E_vdwl   =      -849.8808 E_coul   =     19584.4942 
E_bond   =      1802.3749 E_angle  =      2660.7193 E_dihed  =       563.3776 
Temp     =       633.6100 c_temp_fluid =       665.0376 c_temp_surfaces =       551.3887 
Press    =      6940.7098 c_press_fluid =      5695.4420 c_gg_bot[1] =         0.9516 
c_gg_bot[3] =       -66.2979 c_gg_top[1] =        -4.5948 c_gg_top[3] =        61.4123 
v_dens_liquid =         0.9422 c_rg_1   =        12.2484 v_delta_h =        75.4283 
---------------- Step  4975000 ----- CPU = 248348.2317 (sec) ----------------
Step     =        4975000 TotEng   =     12159.6229 KinEng   =      5101.4983 
PotEng   =      7058.1245 E_vdwl   =      -849.7296 E_coul   =     19580.1047 
E_bond   =      1811.1881 E_angle  =      2666.8504 E_dihed  =       567.8096 
Temp     =       631.4133 c_temp_fluid =       663.3413 c_temp_surfaces =       547.8822 
Press    =      6963.5735 c_press_fluid =      5726.2250 c_gg_bot[1] =         1.5681 
c_gg_bot[3] =       -63.4814 c_gg_top[1] =        -4.9642 c_gg_top[3] =        55.9839 
v_dens_liquid =         0.9425 c_rg_1   =        12.6055 v_delta_h =        75.3996 
---------------- Step  4976000 ----- CPU = 248398.0574 (sec) ----------------
Step     =        4976000 TotEng   =     12163.0238 KinEng   =      5121.9312 
PotEng   =      7041.0926 E_vdwl   =      -841.5010 E_coul   =     19582.7913 
E_bond   =      1792.1447 E_angle  =      2656.1080 E_dihed  =       570.4829 
Temp     =       633.9423 c_temp_fluid =       666.0536 c_temp_surfaces =       549.9314 
Press    =      7426.3996 c_press_fluid =      6184.4232 c_gg_bot[1] =         1.3507 
c_gg_bot[3] =       -57.2600 c_gg_top[1] =        -0.1533 c_gg_top[3] =        56.1969 
v_dens_liquid =         0.9429 c_rg_1   =        12.3827 v_delta_h =        75.3721 
---------------- Step  4977000 ----- CPU = 248448.1358 (sec) ----------------
Step     =        4977000 TotEng   =     12159.7361 KinEng   =      5109.5994 
PotEng   =      7050.1366 E_vdwl   =      -851.2229 E_coul   =     19582.9868 
E_bond   =      1810.2517 E_angle  =      2657.6424 E_dihed  =       570.2291 
Temp     =       632.4160 c_temp_fluid =       665.2702 c_temp_surfaces =       546.4606 
Press    =      6999.7382 c_press_fluid =      5765.6003 c_gg_bot[1] =         1.8685 
c_gg_bot[3] =       -63.2674 c_gg_top[1] =        -2.3619 c_gg_top[3] =        62.6828 
v_dens_liquid =         0.9440 c_rg_1   =        12.4063 v_delta_h =        75.2818 
---------------- Step  4978000 ----- CPU = 248497.6518 (sec) ----------------
Step     =        4978000 TotEng   =     12158.6998 KinEng   =      5085.2194 
PotEng   =      7073.4804 E_vdwl   =      -853.1130 E_coul   =     19578.4518 
E_bond   =      1808.4020 E_angle  =      2683.2150 E_dihed  =       573.5278 
Temp     =       629.3984 c_temp_fluid =       658.8819 c_temp_surfaces =       552.2655 
Press    =      7412.9327 c_press_fluid =      6165.6849 c_gg_bot[1] =         2.0049 
c_gg_bot[3] =       -50.5119 c_gg_top[1] =        -2.1308 c_gg_top[3] =        52.1897 
v_dens_liquid =         0.9422 c_rg_1   =        12.8082 v_delta_h =        75.4290 
---------------- Step  4979000 ----- CPU = 248547.6193 (sec) ----------------
Step     =        4979000 TotEng   =     12164.1585 KinEng   =      5126.0083 
PotEng   =      7038.1502 E_vdwl   =      -861.3627 E_coul   =     19579.1884 
E_bond   =      1809.5617 E_angle  =      2660.1880 E_dihed  =       569.1669 
Temp     =       634.4469 c_temp_fluid =       666.0032 c_temp_surfaces =       551.8888 
Press    =      6849.2806 c_press_fluid =      5602.8835 c_gg_bot[1] =         2.0777 
c_gg_bot[3] =       -59.0477 c_gg_top[1] =        -1.8290 c_gg_top[3] =        55.9162 
v_dens_liquid =         0.9443 c_rg_1   =        12.7019 v_delta_h =        75.2624 
---------------- Step  4980000 ----- CPU = 248597.8182 (sec) ----------------
Step     =        4980000 TotEng   =     12165.9352 KinEng   =      5105.8851 
PotEng   =      7060.0501 E_vdwl   =      -857.4411 E_coul   =     19579.4974 
E_bond   =      1812.2041 E_angle  =      2674.6374 E_dihed  =       569.5487 
Temp     =       631.9562 c_temp_fluid =       662.8411 c_temp_surfaces =       551.1555 
Press    =      7007.3374 c_press_fluid =      5762.5963 c_gg_bot[1] =         8.5557 
c_gg_bot[3] =       -73.5077 c_gg_top[1] =        -6.9514 c_gg_top[3] =        46.3422 
v_dens_liquid =         0.9444 c_rg_1   =        12.5266 v_delta_h =        75.2484 
---------------- Step  4981000 ----- CPU = 248648.2202 (sec) ----------------
Step     =        4981000 TotEng   =     12163.1092 KinEng   =      5111.6511 
PotEng   =      7051.4581 E_vdwl   =      -851.6048 E_coul   =     19580.3125 
E_bond   =      1826.0763 E_angle  =      2655.4237 E_dihed  =       560.1487 
Temp     =       632.6699 c_temp_fluid =       666.3735 c_temp_surfaces =       544.4915 
Press    =      7143.9517 c_press_fluid =      5914.2607 c_gg_bot[1] =         6.5087 
c_gg_bot[3] =       -66.0503 c_gg_top[1] =        -1.4965 c_gg_top[3] =        56.5877 
v_dens_liquid =         0.9425 c_rg_1   =        12.6619 v_delta_h =        75.4034 
---------------- Step  4982000 ----- CPU = 248698.4354 (sec) ----------------
Step     =        4982000 TotEng   =     12160.6493 KinEng   =      5113.8035 
PotEng   =      7046.8458 E_vdwl   =      -855.6328 E_coul   =     19578.8132 
E_bond   =      1811.2271 E_angle  =      2660.9332 E_dihed  =       569.6213 
Temp     =       632.9363 c_temp_fluid =       665.6723 c_temp_surfaces =       547.2904 
Press    =      6708.1868 c_press_fluid =      5472.1747 c_gg_bot[1] =         1.5956 
c_gg_bot[3] =       -71.5732 c_gg_top[1] =        -3.3110 c_gg_top[3] =        61.3050 
v_dens_liquid =         0.9440 c_rg_1   =        12.4382 v_delta_h =        75.2819 
---------------- Step  4983000 ----- CPU = 248748.7674 (sec) ----------------
Step     =        4983000 TotEng   =     12159.6816 KinEng   =      5119.0847 
PotEng   =      7040.5969 E_vdwl   =      -856.7987 E_coul   =     19577.6495 
E_bond   =      1805.7619 E_angle  =      2657.8975 E_dihed  =       573.5248 
Temp     =       633.5900 c_temp_fluid =       664.2965 c_temp_surfaces =       553.2561 
Press    =      6512.8994 c_press_fluid =      5263.4143 c_gg_bot[1] =         2.5354 
c_gg_bot[3] =       -51.8860 c_gg_top[1] =        -3.2753 c_gg_top[3] =        65.6214 
v_dens_liquid =         0.9438 c_rg_1   =        12.3893 v_delta_h =        75.2962 
---------------- Step  4984000 ----- CPU = 248798.9761 (sec) ----------------
Step     =        4984000 TotEng   =     12156.6101 KinEng   =      5113.9146 
PotEng   =      7042.6955 E_vdwl   =      -860.2111 E_coul   =     19581.2392 
E_bond   =      1806.6466 E_angle  =      2667.5800 E_dihed  =       567.3564 
Temp     =       632.9501 c_temp_fluid =       663.8094 c_temp_surfaces =       552.2161 
Press    =      6829.6852 c_press_fluid =      5582.5490 c_gg_bot[1] =         3.0925 
c_gg_bot[3] =       -63.9470 c_gg_top[1] =        -6.8024 c_gg_top[3] =        69.7794 
v_dens_liquid =         0.9422 c_rg_1   =        12.5910 v_delta_h =        75.4304 
---------------- Step  4985000 ----- CPU = 248848.9332 (sec) ----------------
Step     =        4985000 TotEng   =     12154.9343 KinEng   =      5101.1190 
PotEng   =      7053.8153 E_vdwl   =      -859.8192 E_coul   =     19584.1351 
E_bond   =      1825.2529 E_angle  =      2661.3634 E_dihed  =       561.9996 
Temp     =       631.3663 c_temp_fluid =       663.8812 c_temp_surfaces =       546.2991 
Press    =      6972.1213 c_press_fluid =      5738.3481 c_gg_bot[1] =         1.3707 
c_gg_bot[3] =       -60.6802 c_gg_top[1] =        -0.8405 c_gg_top[3] =        54.8260 
v_dens_liquid =         0.9418 c_rg_1   =        12.4051 v_delta_h =        75.4551 
---------------- Step  4986000 ----- CPU = 248899.2239 (sec) ----------------
Step     =        4986000 TotEng   =     12154.2250 KinEng   =      5118.1834 
PotEng   =      7036.0416 E_vdwl   =      -845.3596 E_coul   =     19584.2556 
E_bond   =      1802.7611 E_angle  =      2644.3442 E_dihed  =       569.6200 
Temp     =       633.4784 c_temp_fluid =       665.4551 c_temp_surfaces =       549.8199 
Press    =      7111.4192 c_press_fluid =      5869.6944 c_gg_bot[1] =         5.5580 
c_gg_bot[3] =       -43.5061 c_gg_top[1] =        -0.4717 c_gg_top[3] =        59.8895 
v_dens_liquid =         0.9416 c_rg_1   =        12.1538 v_delta_h =        75.4785 
---------------- Step  4987000 ----- CPU = 248948.9749 (sec) ----------------
Step     =        4987000 TotEng   =     12152.0561 KinEng   =      5106.3110 
PotEng   =      7045.7451 E_vdwl   =      -851.0798 E_coul   =     19586.5510 
E_bond   =      1802.9444 E_angle  =      2654.3697 E_dihed  =       573.0827 
Temp     =       632.0090 c_temp_fluid =       661.5934 c_temp_surfaces =       554.6120 
Press    =      6585.8960 c_press_fluid =      5333.3488 c_gg_bot[1] =         1.9790 
c_gg_bot[3] =       -71.3847 c_gg_top[1] =        -3.1920 c_gg_top[3] =        70.3951 
v_dens_liquid =         0.9419 c_rg_1   =        12.2992 v_delta_h =        75.4501 
---------------- Step  4988000 ----- CPU = 248999.1841 (sec) ----------------
Step     =        4988000 TotEng   =     12152.4313 KinEng   =      5110.8243 
PotEng   =      7041.6070 E_vdwl   =      -851.9902 E_coul   =     19581.9245 
E_bond   =      1806.5847 E_angle  =      2659.9807 E_dihed  =       563.8365 
Temp     =       632.5676 c_temp_fluid =       665.2346 c_temp_surfaces =       547.1021 
Press    =      6795.4460 c_press_fluid =      5559.8593 c_gg_bot[1] =         0.9967 
c_gg_bot[3] =       -54.4671 c_gg_top[1] =        -7.4176 c_gg_top[3] =        51.0549 
v_dens_liquid =         0.9427 c_rg_1   =        12.3385 v_delta_h =        75.3853 
---------------- Step  4989000 ----- CPU = 249049.2555 (sec) ----------------
Step     =        4989000 TotEng   =     12155.3885 KinEng   =      5113.1885 
PotEng   =      7042.2000 E_vdwl   =      -858.8671 E_coul   =     19577.7428 
E_bond   =      1812.9982 E_angle  =      2659.3384 E_dihed  =       568.3599 
Temp     =       632.8602 c_temp_fluid =       664.8070 c_temp_surfaces =       549.2799 
Press    =      6186.8713 c_press_fluid =      4946.3662 c_gg_bot[1] =         6.0270 
c_gg_bot[3] =       -57.4521 c_gg_top[1] =        -2.5728 c_gg_top[3] =        45.9981 
v_dens_liquid =         0.9432 c_rg_1   =        12.3305 v_delta_h =        75.3466 
---------------- Step  4990000 ----- CPU = 249099.2735 (sec) ----------------
Step     =        4990000 TotEng   =     12159.7869 KinEng   =      5122.1328 
PotEng   =      7037.6542 E_vdwl   =      -851.9601 E_coul   =     19581.6727 
E_bond   =      1812.4029 E_angle  =      2646.4225 E_dihed  =       567.8199 
Temp     =       633.9672 c_temp_fluid =       665.5336 c_temp_surfaces =       551.3827 
Press    =      7448.8842 c_press_fluid =      6203.6302 c_gg_bot[1] =         1.5718 
c_gg_bot[3] =       -65.5261 c_gg_top[1] =        -5.1323 c_gg_top[3] =        58.0648 
v_dens_liquid =         0.9424 c_rg_1   =        12.1400 v_delta_h =        75.4081 
---------------- Step  4991000 ----- CPU = 249149.2402 (sec) ----------------
Step     =        4991000 TotEng   =     12159.6757 KinEng   =      5115.2013 
PotEng   =      7044.4744 E_vdwl   =      -857.2693 E_coul   =     19579.9677 
E_bond   =      1818.1834 E_angle  =      2654.4135 E_dihed  =       566.5009 
Temp     =       633.1093 c_temp_fluid =       666.1185 c_temp_surfaces =       546.7485 
Press    =      7034.1069 c_press_fluid =      5799.3187 c_gg_bot[1] =         3.5913 
c_gg_bot[3] =       -59.8669 c_gg_top[1] =        -0.7983 c_gg_top[3] =        61.9427 
v_dens_liquid =         0.9431 c_rg_1   =        12.3537 v_delta_h =        75.3559 
---------------- Step  4992000 ----- CPU = 249199.1782 (sec) ----------------
Step     =        4992000 TotEng   =     12159.9657 KinEng   =      5112.1290 
PotEng   =      7047.8368 E_vdwl   =      -860.6433 E_coul   =     19577.8171 
E_bond   =      1821.9735 E_angle  =      2660.0834 E_dihed  =       566.2925 
Temp     =       632.7290 c_temp_fluid =       664.9145 c_temp_surfaces =       548.5242 
Press    =      6974.9917 c_press_fluid =      5736.1934 c_gg_bot[1] =         5.3352 
c_gg_bot[3] =       -56.7870 c_gg_top[1] =        -1.2288 c_gg_top[3] =        48.1172 
v_dens_liquid =         0.9434 c_rg_1   =        12.4567 v_delta_h =        75.3272 
---------------- Step  4993000 ----- CPU = 249249.5813 (sec) ----------------
Step     =        4993000 TotEng   =     12164.7644 KinEng   =      5104.1635 
PotEng   =      7060.6009 E_vdwl   =      -847.2809 E_coul   =     19575.0350 
E_bond   =      1820.0333 E_angle  =      2670.2204 E_dihed  =       559.7582 
Temp     =       631.7432 c_temp_fluid =       664.2815 c_temp_surfaces =       546.6146 
Press    =      6798.7990 c_press_fluid =      5564.3133 c_gg_bot[1] =        -0.3665 
c_gg_bot[3] =       -59.6730 c_gg_top[1] =        -5.3428 c_gg_top[3] =        57.8513 
v_dens_liquid =         0.9441 c_rg_1   =        12.5142 v_delta_h =        75.2718 
---------------- Step  4994000 ----- CPU = 249299.8530 (sec) ----------------
Step     =        4994000 TotEng   =     12165.9038 KinEng   =      5132.4450 
PotEng   =      7033.4588 E_vdwl   =      -853.0863 E_coul   =     19581.1136 
E_bond   =      1798.3907 E_angle  =      2657.0633 E_dihed  =       568.5454 
Temp     =       635.2436 c_temp_fluid =       666.7703 c_temp_surfaces =       552.7629 
Press    =      7563.5909 c_press_fluid =      6315.2196 c_gg_bot[1] =        -0.3563 
c_gg_bot[3] =       -62.1166 c_gg_top[1] =        -4.2203 c_gg_top[3] =        61.5870 
v_dens_liquid =         0.9441 c_rg_1   =        12.5424 v_delta_h =        75.2715 
---------------- Step  4995000 ----- CPU = 249349.8150 (sec) ----------------
Step     =        4995000 TotEng   =     12168.3742 KinEng   =      5114.7109 
PotEng   =      7053.6633 E_vdwl   =      -862.1126 E_coul   =     19586.3730 
E_bond   =      1816.3538 E_angle  =      2670.9264 E_dihed  =       562.3421 
Temp     =       633.0486 c_temp_fluid =       664.7439 c_temp_surfaces =       550.1266 
Press    =      6890.2331 c_press_fluid =      5647.8157 c_gg_bot[1] =         1.8919 
c_gg_bot[3] =       -62.0893 c_gg_top[1] =        -3.1195 c_gg_top[3] =        61.2789 
v_dens_liquid =         0.9442 c_rg_1   =        12.5128 v_delta_h =        75.2649 
---------------- Step  4996000 ----- CPU = 249399.8877 (sec) ----------------
Step     =        4996000 TotEng   =     12167.6360 KinEng   =      5138.3623 
PotEng   =      7029.2737 E_vdwl   =      -850.6018 E_coul   =     19581.5658 
E_bond   =      1803.5266 E_angle  =      2648.0345 E_dihed  =       566.0824 
Temp     =       635.9759 c_temp_fluid =       669.4166 c_temp_surfaces =       548.4860 
Press    =      7315.0165 c_press_fluid =      6076.3043 c_gg_bot[1] =         5.0240 
c_gg_bot[3] =       -50.7972 c_gg_top[1] =        -3.6444 c_gg_top[3] =        57.5525 
v_dens_liquid =         0.9448 c_rg_1   =        12.5345 v_delta_h =        75.2207 
---------------- Step  4997000 ----- CPU = 249450.0874 (sec) ----------------
Step     =        4997000 TotEng   =     12169.8109 KinEng   =      5123.5407 
PotEng   =      7046.2702 E_vdwl   =      -853.3741 E_coul   =     19580.8523 
E_bond   =      1801.4259 E_angle  =      2669.3994 E_dihed  =       566.3411 
Temp     =       634.1415 c_temp_fluid =       666.4115 c_temp_surfaces =       549.7153 
Press    =      6935.7858 c_press_fluid =      5694.2974 c_gg_bot[1] =         0.3929 
c_gg_bot[3] =       -65.1437 c_gg_top[1] =        -0.7087 c_gg_top[3] =        54.9986 
v_dens_liquid =         0.9460 c_rg_1   =        12.7339 v_delta_h =        75.1214 
---------------- Step  4998000 ----- CPU = 249500.1256 (sec) ----------------
Step     =        4998000 TotEng   =     12169.1368 KinEng   =      5129.0131 
PotEng   =      7040.1238 E_vdwl   =      -860.0811 E_coul   =     19586.2317 
E_bond   =      1807.4712 E_angle  =      2664.9923 E_dihed  =       562.0889 
Temp     =       634.8188 c_temp_fluid =       666.5062 c_temp_surfaces =       551.9175 
Press    =      6705.0019 c_press_fluid =      5458.5400 c_gg_bot[1] =         0.0956 
c_gg_bot[3] =       -46.1191 c_gg_top[1] =        -2.5294 c_gg_top[3] =        62.7493 
v_dens_liquid =         0.9446 c_rg_1   =        12.8320 v_delta_h =        75.2382 
---------------- Step  4999000 ----- CPU = 249550.4460 (sec) ----------------
Step     =        4999000 TotEng   =     12168.0914 KinEng   =      5132.6617 
PotEng   =      7035.4298 E_vdwl   =      -859.8100 E_coul   =     19583.2688 
E_bond   =      1803.3715 E_angle  =      2664.0113 E_dihed  =       564.0783 
Temp     =       635.2704 c_temp_fluid =       666.9228 c_temp_surfaces =       552.4608 
Press    =      6945.0035 c_press_fluid =      5697.3146 c_gg_bot[1] =         2.5659 
c_gg_bot[3] =       -52.3850 c_gg_top[1] =        -0.9126 c_gg_top[3] =        60.2402 
v_dens_liquid =         0.9438 c_rg_1   =        12.9564 v_delta_h =        75.3018 
---------------- Step  5000000 ----- CPU = 249600.8507 (sec) ----------------
Step     =        5000000 TotEng   =     12163.5392 KinEng   =      5117.3534 
PotEng   =      7046.1858 E_vdwl   =      -855.7855 E_coul   =     19583.8814 
E_bond   =      1812.4404 E_angle  =      2660.0801 E_dihed  =       564.7012 
Temp     =       633.3757 c_temp_fluid =       665.0971 c_temp_surfaces =       550.3854 
Press    =      7214.4181 c_press_fluid =      5971.4163 c_gg_bot[1] =         0.0705 
c_gg_bot[3] =       -58.4721 c_gg_top[1] =        -6.0540 c_gg_top[3] =        64.8885 
v_dens_liquid =         0.9426 c_rg_1   =        12.8265 v_delta_h =        75.3951 
Loop time of 249601 on 48 procs for 5000000 steps with 75520 atoms

Performance: 1.731 ns/day, 13.867 hours/ns, 20.032 timesteps/s
99.3% CPU use with 48 MPI tasks x no OpenMP threads

MPI task timing breakdown:
Section |  min time  |  avg time  |  max time  |%varavg| %total
---------------------------------------------------------------
Pair    | 5.7317     | 70851      | 1.4722e+05 |21776.3 | 28.39
Bond    | 9.4596     | 4765.9     | 10796      |6604.8 |  1.91
Kspace  | 55585      | 1.3843e+05 | 2.1514e+05 |16856.2 | 55.46
Neigh   | 27285      | 27391      | 27714      |  77.4 | 10.97
Comm    | 118.92     | 2435.4     | 3438.3     |2135.0 |  0.98
Output  | 199.29     | 199.3      | 199.49     |   0.2 |  0.08
Modify  | 4630.5     | 5192.4     | 6147.5     | 773.5 |  2.08
Other   |            | 338.4      |            |       |  0.14

Nlocal:    1573.33 ave 2754 max 0 min
Histogram: 18 0 0 0 0 0 6 0 6 18
Nghost:    8778.29 ave 15246 max 0 min
Histogram: 6 6 6 0 0 6 6 0 0 18
Neighs:    645023 ave 1.24059e+06 max 0 min
Histogram: 18 0 0 0 6 0 0 6 0 18

Total # of neighbors = 30961091
Ave neighs/atom = 409.972
Ave special neighs/atom = 36.4966
Neighbor list builds = 385440
Dangerous builds = 0

###################
# Run shear phase #
###################

write_restart  shear.rst
PPPM initialization ...
WARNING: Using 12-bit tables for long-range coulomb (../kspace.cpp:317)
  G vector (1/distance) = 0.275732
  grid = 50 50 216
  stencil order = 5
  estimated absolute RMS force accuracy = 0.000169547
  estimated relative force accuracy = 1.17744e-05
  using double precision FFTs
  3d grid and FFT values/proc = 114080 65025
write_data     shear.data
PPPM initialization ...
WARNING: Using 12-bit tables for long-range coulomb (../kspace.cpp:317)
  G vector (1/distance) = 0.275732
  grid = 50 50 216
  stencil order = 5
  estimated absolute RMS force accuracy = 0.000169547
  estimated relative force accuracy = 1.17744e-05
  using double precision FFTs
  3d grid and FFT values/proc = 114080 65025
Total wall time: 69:20:03
