LAMMPS (17 Nov 2016)
#####################################################################
# Two stage simulation of  hematite with hexa oil                   #
# 1) Compress walls untill no occilation                            #
# 2) Add shear and record velocity profile                          #
#####################################################################

clear

#####################################
# Set boundary conditions and units #
#####################################

units          metal
atom_style     full
#boundary       p p f

############################
# Set simulation variables #
############################

variable       Temp      equal 353                      # Temperature in K
variable       Press     equal 15000                        # Applied pressure in bar - equal to 1.5 GPa
variable       Tstep     equal 0.001                       # Timestep in ps

variable       NcompRamp equal 10000                  # Number of timesteps  to apply load (incrementally)
variable       Ncomp     equal 10000                # Number of timesteps  to apply - until no more occilation of walls
variable       Nshear    equal 5000000                # Number of timesteps  to apply - use approx 4ns for 10m/s

variable       Nthermo   equal 1000                        # Number of timesteps  to print thermo data

#variable       Ndump_e   equal 1000                        # Number of timesteps per dump file (equilibration)
variable       Ndump_c   equal 10000                        # Number of timesteps per dump file (compression)
variable       Ndump_s   equal 10000                        # Number of timesteps per dump file (shear)

variable       Wall_v    equal 0.2                         # Wall velocity (A/ps) 0.1=10m/s

variable       res       equal 0.5                         # Resolution for density profiles etc (A)

# For compression - density profiles (100 for entire run)
variable       Nfreq_c_dp   equal ${Ncomp}/100                  # Calculate bin averages every this many timesteps
variable       Nfreq_c_dp   equal 10000/100                  
variable       Nevery_c_dp  equal 100                          # Use input values every this many timesteps
variable       Nrepeat_c_dp equal ${Nfreq_c_dp}/${Nevery_c_dp} # Number of times to use input values
variable       Nrepeat_c_dp equal 100/${Nevery_c_dp} 
variable       Nrepeat_c_dp equal 100/100 

# For compression - temperature and velocity profiles (100 for entire run)
variable       Nfreq_c_tp   equal ${Ncomp}/100                  # Calculate bin averages every this many timesteps
variable       Nfreq_c_tp   equal 10000/100                  
variable       Nevery_c_tp  equal 100                          # Use input values every this many timesteps
variable       Nrepeat_c_tp equal ${Nfreq_c_tp}/${Nevery_c_tp} # Number of times to use input values
variable       Nrepeat_c_tp equal 100/${Nevery_c_tp} 
variable       Nrepeat_c_tp equal 100/100 

# For shear - density profiles (100 for entire run)
variable       Nfreq_s_dp   equal ${Nshear}/100                 # Calculate bin averages every this many timesteps
variable       Nfreq_s_dp   equal 5000000/100                 
variable       Nevery_s_dp  equal 100                          # Use input values every this many timesteps
variable       Nrepeat_s_dp equal ${Nfreq_s_dp}/${Nevery_s_dp} # Number of times to use input values
variable       Nrepeat_s_dp equal 50000/${Nevery_s_dp} 
variable       Nrepeat_s_dp equal 50000/100 

# For shear - temperature and velocity profiles (100 for entire run)
variable       Nfreq_s_tp   equal ${Nshear}/100                 # Calculate bin averages every this many timesteps
variable       Nfreq_s_tp   equal 5000000/100                 
variable       Nevery_s_tp  equal 100                          # Use input values every this many timesteps
variable       Nrepeat_s_tp equal ${Nfreq_s_tp}/${Nevery_s_tp} # Number of times to use input values
variable       Nrepeat_s_tp equal 50000/${Nevery_s_tp} 
variable       Nrepeat_s_tp equal 50000/100 

#For shear - friction force measurements
variable        div_s    equal 100


#########################
# Set nonbonded info    #
#########################

pair_style     lj/cut/coul/long 10.0
pair_modify    mix geometric

kspace_style   pppm 1.0e-5
kspace_modify  slab 3.0
#kspace_modify  slab nozforce

special_bonds  lj/coul 0.0 0.0 0.5

neigh_modify   every 1 delay 0 check yes

######################
# Set bonded info    #
######################
bond_style      hybrid harmonic
angle_style     hybrid harmonic
dihedral_style  hybrid opls multi/harmonic
improper_style  hybrid harmonic

##################################
# Open minimisation restart file #
##################################

read_restart  shear.rst
  orthogonal box = (0 0 -33.73) to (80.464 78.3944 133.73)
  4 by 3 by 8 MPI processor grid
  75520 atoms
  140864 bonds
  115200 angles
  169920 dihedrals
  12 = max # of 1-2 neighbors
  120 = max # of 1-3 neighbors
  1272 = max # of 1-4 neighbors
  152 = max # of special neighbors
include lopls.in.settings
    pair_coeff 1 1 lj/cut/coul/long 0.00286198 3.5
    pair_coeff 2 2 lj/cut/coul/long 0.00286198 3.5
    pair_coeff 3 3 lj/cut/coul/long 0.0013009 2.5
    pair_coeff 4 4 lj/cut/coul/long 0.00329562 3.55
    pair_coeff 5 5 lj/cut/coul/long 0.0013009 2.42
    pair_coeff 6 6 lj/cut/coul/long 0.00737178 3.12
    pair_coeff 7 7 lj/cut/coul/long 0.0 0.0
    pair_coeff 8 8 lj/cut/coul/long 0.00286198 3.5
    pair_coeff 9 9 lj/cut/coul/long 0.00286198 3.5
    pair_coeff 10 10 lj/cut/coul/long 0.00455316 3.75
    pair_coeff 11 11 lj/cut/coul/long 0.00910631 2.96
    pair_coeff 12 12 lj/cut/coul/long 0.00737178 3.25
    pair_coeff 13 13 lj/cut/coul/long 0.0 0.0
    pair_coeff 14 14 lj/cut/coul/long 0.00455316 3.75
    pair_coeff 15 15 lj/cut/coul/long 0.00910631 2.96
    pair_coeff 16 16 lj/cut/coul/long 0.00737178 3.0
    pair_coeff 17 17 lj/cut/coul/long 0.0 0.0
    pair_coeff 18 18 lj/cut/coul/long 0.00455316 3.75
    pair_coeff 19 19 lj/cut/coul/long 0.00910631 2.96
    pair_coeff 20 20 lj/cut/coul/long 0.00737178 3.0
    pair_coeff 21 21 lj/cut/coul/long 0.00286198 3.5
    pair_coeff 22 22 lj/cut/coul/long 0.00114046 2.5
    pair_coeff 23 23 lj/cut/coul/long 0.4127328412 2.321
    pair_coeff 24 24 lj/cut/coul/long 0.01474392192659695104 2.320
    pair_coeff 25 25 lj/cut/coul/long 0.00737196096329847552 2.960
    bond_coeff 1 harmonic 15.1772 1.51
    bond_coeff 2 harmonic 15.1772 1.51
    bond_coeff 3 harmonic 15.1772 1.51
    bond_coeff 4 harmonic 15.1772 1.51
    bond_coeff 5 harmonic 15.1772 1.51
    bond_coeff 6 harmonic 15.1772 1.51
    bond_coeff 7 harmonic 15.1772 1.51
    bond_coeff 8 harmonic 15.1772 1.51
    bond_coeff 9 harmonic 15.1772 1.51
    bond_coeff 10 harmonic 24.7171 1.229
    bond_coeff 11 harmonic 24.7171 1.229
    bond_coeff 12 harmonic 24.7171 1.229
    bond_coeff 13 harmonic 24.7171 1.229
    bond_coeff 14 harmonic 24.7171 1.229
    bond_coeff 15 harmonic 24.7171 1.229
    bond_coeff 16 harmonic 24.7171 1.229
    bond_coeff 17 harmonic 24.7171 1.229
    bond_coeff 18 harmonic 24.7171 1.229
    bond_coeff 19 harmonic 19.5135 1.364
    bond_coeff 20 harmonic 19.5135 1.364
    bond_coeff 21 harmonic 19.5135 1.364
    bond_coeff 22 harmonic 19.5135 1.364
    bond_coeff 23 harmonic 19.5135 1.364
    bond_coeff 24 harmonic 19.5135 1.364
    bond_coeff 25 harmonic 13.7462 1.522
    bond_coeff 26 harmonic 13.7462 1.522
    bond_coeff 27 harmonic 13.7462 1.522
    bond_coeff 28 harmonic 13.7462 1.522
    bond_coeff 29 harmonic 13.7462 1.522
    bond_coeff 30 harmonic 13.7462 1.522
    bond_coeff 31 harmonic 13.7462 1.522
    bond_coeff 32 harmonic 13.7462 1.522
    bond_coeff 33 harmonic 13.7462 1.522
    bond_coeff 34 harmonic 13.7462 1.522
    bond_coeff 35 harmonic 13.7462 1.522
    bond_coeff 36 harmonic 13.7462 1.522
    bond_coeff 37 harmonic 13.7462 1.522
    bond_coeff 38 harmonic 13.7462 1.522
    bond_coeff 39 harmonic 13.7462 1.522
    bond_coeff 40 harmonic 9.27977 1.327
    bond_coeff 41 harmonic 9.27977 1.327
    bond_coeff 42 harmonic 9.27977 1.327
    bond_coeff 43 harmonic 21.2481 1.335
    bond_coeff 44 harmonic 21.2481 1.335
    bond_coeff 45 harmonic 21.2481 1.335
    bond_coeff 46 harmonic 14.7436 1.09
    bond_coeff 47 harmonic 14.7436 1.09
    bond_coeff 48 harmonic 14.7436 1.09
    bond_coeff 49 harmonic 14.7436 1.09
    bond_coeff 50 harmonic 14.7436 1.09
    bond_coeff 51 harmonic 14.7436 1.09
    bond_coeff 52 harmonic 14.7436 1.09
    bond_coeff 53 harmonic 14.7436 1.09
    bond_coeff 54 harmonic 14.7436 1.09
    bond_coeff 55 harmonic 17.779 1.444
    bond_coeff 56 harmonic 17.779 1.444
    bond_coeff 57 harmonic 17.779 1.444
    bond_coeff 58 harmonic 23.98 0.945
    bond_coeff 59 harmonic 23.98 0.945
    bond_coeff 60 harmonic 23.98 0.945
    bond_coeff 61 harmonic 23.98 0.945
    bond_coeff 62 harmonic 13.8763 1.41
    bond_coeff 63 harmonic 13.8763 1.41
    bond_coeff 64 harmonic 13.8763 1.41
    bond_coeff 65 harmonic 13.8763 1.41
    bond_coeff 66 harmonic 13.8763 1.41
    bond_coeff 67 harmonic 13.8763 1.41
    bond_coeff 68 harmonic 13.8763 1.41
    bond_coeff 69 harmonic 13.8763 1.41
    bond_coeff 70 harmonic 13.8763 1.41
    bond_coeff 71 harmonic 13.8763 1.41
    bond_coeff 72 harmonic 10.8409 1.47
    bond_coeff 73 harmonic 10.8409 1.47
    bond_coeff 74 harmonic 17.3454 1.38
    bond_coeff 75 harmonic 17.3454 1.38
    bond_coeff 76 harmonic 19.5135 1.37
    bond_coeff 77 harmonic 19.5135 1.37
    bond_coeff 78 harmonic 23.98 0.945
    bond_coeff 79 harmonic 23.98 0.945
    bond_coeff 80 harmonic 11.6214 1.529
    bond_coeff 81 harmonic 11.6214 1.529
    bond_coeff 82 harmonic 11.6214 1.529
    bond_coeff 83 harmonic 11.6214 1.529
    bond_coeff 84 harmonic 11.6214 1.529
    bond_coeff 85 harmonic 11.6214 1.529
    bond_coeff 86 harmonic 11.6214 1.529
    bond_coeff 87 harmonic 11.6214 1.529
    bond_coeff 88 harmonic 11.6214 1.529
    bond_coeff 89 harmonic 11.6214 1.529
    bond_coeff 90 harmonic 11.6214 1.529
    bond_coeff 91 harmonic 11.6214 1.529
    bond_coeff 92 harmonic 11.6214 1.529
    bond_coeff 93 harmonic 11.6214 1.529
    bond_coeff 94 harmonic 11.6214 1.529
    bond_coeff 95 harmonic 11.6214 1.529
    bond_coeff 96 harmonic 11.6214 1.529
    bond_coeff 97 harmonic 11.6214 1.529
    bond_coeff 98 harmonic 11.6214 1.529
    bond_coeff 99 harmonic 11.6214 1.529
    bond_coeff 100 harmonic 11.6214 1.529
    bond_coeff 101 harmonic 11.6214 1.529
    bond_coeff 102 harmonic 11.6214 1.529
    bond_coeff 103 harmonic 11.6214 1.529
    bond_coeff 104 harmonic 11.6214 1.529
    bond_coeff 105 harmonic 13.8763 1.41
    bond_coeff 106 harmonic 13.8763 1.41
    bond_coeff 107 harmonic 13.8763 1.41
    bond_coeff 108 harmonic 13.8763 1.41
    bond_coeff 109 harmonic 13.8763 1.41
    bond_coeff 110 harmonic 14.6135 1.449
    bond_coeff 111 harmonic 14.6135 1.449
    bond_coeff 112 harmonic 14.6135 1.449
    bond_coeff 113 harmonic 14.6135 1.449
    bond_coeff 114 harmonic 14.6135 1.449
    bond_coeff 115 harmonic 14.7436 1.09
    bond_coeff 116 harmonic 14.7436 1.09
    bond_coeff 117 harmonic 14.7436 1.09
    bond_coeff 118 harmonic 14.7436 1.09
    bond_coeff 119 harmonic 14.7436 1.09
    bond_coeff 120 harmonic 14.7436 1.09
    bond_coeff 121 harmonic 14.7436 1.09
    bond_coeff 122 harmonic 14.7436 1.09
    bond_coeff 123 harmonic 14.7436 1.09
    bond_coeff 124 harmonic 14.7436 1.09
    bond_coeff 125 harmonic 14.7436 1.09
    bond_coeff 126 harmonic 14.7436 1.09
    bond_coeff 127 harmonic 14.7436 1.09
    bond_coeff 128 harmonic 14.7436 1.09
    bond_coeff 129 harmonic 14.7436 1.09
    bond_coeff 130 harmonic 13.7462 1.51
    bond_coeff 131 harmonic 13.7462 1.51
    bond_coeff 132 harmonic 13.7462 1.51
    bond_coeff 133 harmonic 13.7462 1.51
    bond_coeff 134 harmonic 13.7462 1.51
    bond_coeff 135 harmonic 10.8409 1.47
    bond_coeff 136 harmonic 13.8763 1.45
    bond_coeff 137 harmonic 19.5135 1.37
    bond_coeff 138 harmonic 18.8197 1.01
    bond_coeff 139 harmonic 14.7436 1.08
    bond_coeff 140 harmonic 14.7436 1.08
    bond_coeff 141 harmonic 14.7436 1.08
    bond_coeff 142 harmonic 23.8065 1.34
    bond_coeff 143 harmonic 5.63738 1.945000
    bond_coeff 144 harmonic 5.63738 2.116000
    bond_coeff 145 harmonic 5.63738 2.888000
    bond_coeff 146 harmonic 5.63738 2.775000
    bond_coeff 147 harmonic 5.63738 2.669000
    bond_coeff 148 harmonic 5.63738 2.971000
    angle_coeff 1 harmonic 3.46907 121.4
    angle_coeff 2 harmonic 3.46907 121.4
    angle_coeff 3 harmonic 3.46907 121.4
    angle_coeff 4 harmonic 3.46907 121.4
    angle_coeff 5 harmonic 3.46907 121.4
    angle_coeff 6 harmonic 3.46907 121.4
    angle_coeff 7 harmonic 3.46907 121.4
    angle_coeff 8 harmonic 3.46907 121.4
    angle_coeff 9 harmonic 3.46907 121.4
    angle_coeff 10 harmonic 3.46907 121.4
    angle_coeff 11 harmonic 3.46907 121.4
    angle_coeff 12 harmonic 3.46907 121.4
    angle_coeff 13 harmonic 3.46907 121.4
    angle_coeff 14 harmonic 3.46907 121.4
    angle_coeff 15 harmonic 3.46907 121.4
    angle_coeff 16 harmonic 3.46907 121.4
    angle_coeff 17 harmonic 3.46907 121.4
    angle_coeff 18 harmonic 3.46907 121.4
    angle_coeff 19 harmonic 3.46907 121.4
    angle_coeff 20 harmonic 3.46907 121.4
    angle_coeff 21 harmonic 3.46907 121.4
    angle_coeff 22 harmonic 3.46907 121.4
    angle_coeff 23 harmonic 3.46907 121.4
    angle_coeff 24 harmonic 3.46907 121.4
    angle_coeff 25 harmonic 3.46907 121.4
    angle_coeff 26 harmonic 3.46907 121.4
    angle_coeff 27 harmonic 3.46907 121.4
    angle_coeff 28 harmonic 3.46907 126.0
    angle_coeff 29 harmonic 3.46907 126.0
    angle_coeff 30 harmonic 3.46907 126.0
    angle_coeff 31 harmonic 3.46907 126.0
    angle_coeff 32 harmonic 3.46907 126.0
    angle_coeff 33 harmonic 3.46907 126.0
    angle_coeff 34 harmonic 3.46907 126.0
    angle_coeff 35 harmonic 3.46907 126.0
    angle_coeff 36 harmonic 3.46907 126.0
    angle_coeff 37 harmonic 3.46907 126.0
    angle_coeff 38 harmonic 3.46907 126.0
    angle_coeff 39 harmonic 3.46907 126.0
    angle_coeff 40 harmonic 3.46907 126.0
    angle_coeff 41 harmonic 3.46907 126.0
    angle_coeff 42 harmonic 3.46907 126.0
    angle_coeff 43 harmonic 3.46907 126.0
    angle_coeff 44 harmonic 3.46907 126.0
    angle_coeff 45 harmonic 3.46907 126.0
    angle_coeff 46 harmonic 3.46907 126.0
    angle_coeff 47 harmonic 3.46907 126.0
    angle_coeff 48 harmonic 3.46907 126.0
    angle_coeff 49 harmonic 3.46907 126.0
    angle_coeff 50 harmonic 3.46907 126.0
    angle_coeff 51 harmonic 3.46907 126.0
    angle_coeff 52 harmonic 3.46907 126.0
    angle_coeff 53 harmonic 3.46907 126.0
    angle_coeff 54 harmonic 3.46907 126.0
    angle_coeff 55 harmonic 3.46907 121.0
    angle_coeff 56 harmonic 3.46907 121.0
    angle_coeff 57 harmonic 3.46907 121.0
    angle_coeff 58 harmonic 3.46907 121.0
    angle_coeff 59 harmonic 3.46907 121.0
    angle_coeff 60 harmonic 3.46907 121.0
    angle_coeff 61 harmonic 3.46907 121.0
    angle_coeff 62 harmonic 3.46907 121.0
    angle_coeff 63 harmonic 3.46907 121.0
    angle_coeff 64 harmonic 3.46907 121.0
    angle_coeff 65 harmonic 3.46907 121.0
    angle_coeff 66 harmonic 3.46907 121.0
    angle_coeff 67 harmonic 3.46907 121.0
    angle_coeff 68 harmonic 3.46907 121.0
    angle_coeff 69 harmonic 3.46907 121.0
    angle_coeff 70 harmonic 3.46907 121.0
    angle_coeff 71 harmonic 3.46907 121.0
    angle_coeff 72 harmonic 3.46907 121.0
    angle_coeff 73 harmonic 3.03544 108.0
    angle_coeff 74 harmonic 3.03544 108.0
    angle_coeff 75 harmonic 3.03544 108.0
    angle_coeff 76 harmonic 3.03544 108.0
    angle_coeff 77 harmonic 3.03544 108.0
    angle_coeff 78 harmonic 3.03544 108.0
    angle_coeff 79 harmonic 3.03544 108.0
    angle_coeff 80 harmonic 3.03544 108.0
    angle_coeff 81 harmonic 3.03544 108.0
    angle_coeff 82 harmonic 3.03544 108.0
    angle_coeff 83 harmonic 3.03544 108.0
    angle_coeff 84 harmonic 3.03544 108.0
    angle_coeff 85 harmonic 3.03544 108.0
    angle_coeff 86 harmonic 3.03544 108.0
    angle_coeff 87 harmonic 3.03544 108.0
    angle_coeff 88 harmonic 3.03544 108.0
    angle_coeff 89 harmonic 3.03544 108.0
    angle_coeff 90 harmonic 3.03544 108.0
    angle_coeff 91 harmonic 3.03544 108.0
    angle_coeff 92 harmonic 3.03544 108.0
    angle_coeff 93 harmonic 3.03544 108.0
    angle_coeff 94 harmonic 3.03544 108.0
    angle_coeff 95 harmonic 3.03544 108.0
    angle_coeff 96 harmonic 3.03544 108.0
    angle_coeff 97 harmonic 3.03544 108.0
    angle_coeff 98 harmonic 3.03544 108.0
    angle_coeff 99 harmonic 3.03544 108.0
    angle_coeff 100 harmonic 3.03544 108.0
    angle_coeff 101 harmonic 3.03544 108.0
    angle_coeff 102 harmonic 3.03544 108.0
    angle_coeff 103 harmonic 3.03544 116.0
    angle_coeff 104 harmonic 3.03544 116.0
    angle_coeff 105 harmonic 3.03544 116.0
    angle_coeff 106 harmonic 3.03544 116.0
    angle_coeff 107 harmonic 3.03544 116.0
    angle_coeff 108 harmonic 3.03544 116.0
    angle_coeff 109 harmonic 3.03544 116.0
    angle_coeff 110 harmonic 3.03544 116.0
    angle_coeff 111 harmonic 3.03544 116.0
    angle_coeff 112 harmonic 3.03544 116.0
    angle_coeff 113 harmonic 3.03544 116.0
    angle_coeff 114 harmonic 3.03544 116.0
    angle_coeff 115 harmonic 3.03544 116.0
    angle_coeff 116 harmonic 3.03544 116.0
    angle_coeff 117 harmonic 3.03544 116.0
    angle_coeff 118 harmonic 3.03544 116.0
    angle_coeff 119 harmonic 3.03544 116.0
    angle_coeff 120 harmonic 3.03544 116.0
    angle_coeff 121 harmonic 3.03544 116.0
    angle_coeff 122 harmonic 3.03544 116.0
    angle_coeff 123 harmonic 3.03544 116.0
    angle_coeff 124 harmonic 3.03544 116.0
    angle_coeff 125 harmonic 3.03544 116.0
    angle_coeff 126 harmonic 3.03544 116.0
    angle_coeff 127 harmonic 3.03544 116.0
    angle_coeff 128 harmonic 3.03544 116.0
    angle_coeff 129 harmonic 3.03544 116.0
    angle_coeff 130 harmonic 3.03544 116.0
    angle_coeff 131 harmonic 3.03544 116.0
    angle_coeff 132 harmonic 3.03544 116.0
    angle_coeff 133 harmonic 3.03544 116.0
    angle_coeff 134 harmonic 3.03544 116.0
    angle_coeff 135 harmonic 3.03544 116.0
    angle_coeff 136 harmonic 3.03544 116.0
    angle_coeff 137 harmonic 3.03544 116.0
    angle_coeff 138 harmonic 3.03544 116.0
    angle_coeff 139 harmonic 3.03544 116.0
    angle_coeff 140 harmonic 3.03544 116.0
    angle_coeff 141 harmonic 3.03544 116.0
    angle_coeff 142 harmonic 3.03544 116.0
    angle_coeff 143 harmonic 3.03544 116.0
    angle_coeff 144 harmonic 3.03544 116.0
    angle_coeff 145 harmonic 3.03544 116.0
    angle_coeff 146 harmonic 3.03544 116.0
    angle_coeff 147 harmonic 3.03544 116.0
    angle_coeff 148 harmonic 3.03544 116.0
    angle_coeff 149 harmonic 3.03544 116.0
    angle_coeff 150 harmonic 3.03544 116.0
    angle_coeff 151 harmonic 3.03544 116.0
    angle_coeff 152 harmonic 3.03544 116.0
    angle_coeff 153 harmonic 3.03544 116.0
    angle_coeff 154 harmonic 3.03544 116.0
    angle_coeff 155 harmonic 3.03544 116.0
    angle_coeff 156 harmonic 3.03544 116.0
    angle_coeff 157 harmonic 3.03544 116.0
    angle_coeff 158 harmonic 3.03544 116.0
    angle_coeff 159 harmonic 3.03544 116.0
    angle_coeff 160 harmonic 3.03544 116.0
    angle_coeff 161 harmonic 3.03544 116.0
    angle_coeff 162 harmonic 3.03544 116.0
    angle_coeff 163 harmonic 3.03544 116.0
    angle_coeff 164 harmonic 3.03544 116.0
    angle_coeff 165 harmonic 3.03544 116.0
    angle_coeff 166 harmonic 3.03544 116.0
    angle_coeff 167 harmonic 3.03544 116.0
    angle_coeff 168 harmonic 3.03544 116.0
    angle_coeff 169 harmonic 3.03544 116.0
    angle_coeff 170 harmonic 3.03544 116.0
    angle_coeff 171 harmonic 3.03544 116.0
    angle_coeff 172 harmonic 3.03544 116.0
    angle_coeff 173 harmonic 3.03544 116.0
    angle_coeff 174 harmonic 3.03544 116.0
    angle_coeff 175 harmonic 3.03544 116.0
    angle_coeff 176 harmonic 3.03544 116.0
    angle_coeff 177 harmonic 3.03544 116.0
    angle_coeff 178 harmonic 3.46907 117.2
    angle_coeff 179 harmonic 3.46907 117.2
    angle_coeff 180 harmonic 3.46907 117.2
    angle_coeff 181 harmonic 3.46907 117.2
    angle_coeff 182 harmonic 3.46907 117.2
    angle_coeff 183 harmonic 3.46907 117.2
    angle_coeff 184 harmonic 3.46907 117.2
    angle_coeff 185 harmonic 3.46907 117.2
    angle_coeff 186 harmonic 3.46907 117.2
    angle_coeff 187 harmonic 3.46907 117.2
    angle_coeff 188 harmonic 3.46907 117.2
    angle_coeff 189 harmonic 3.46907 117.2
    angle_coeff 190 harmonic 3.46907 117.2
    angle_coeff 191 harmonic 3.46907 117.2
    angle_coeff 192 harmonic 3.46907 117.2
    angle_coeff 193 harmonic 3.46907 117.2
    angle_coeff 194 harmonic 3.46907 117.2
    angle_coeff 195 harmonic 3.46907 117.2
    angle_coeff 196 harmonic 3.46907 117.2
    angle_coeff 197 harmonic 3.46907 117.2
    angle_coeff 198 harmonic 3.46907 117.2
    angle_coeff 199 harmonic 3.46907 117.2
    angle_coeff 200 harmonic 3.46907 117.2
    angle_coeff 201 harmonic 3.46907 117.2
    angle_coeff 202 harmonic 3.46907 117.2
    angle_coeff 203 harmonic 3.46907 117.2
    angle_coeff 204 harmonic 3.46907 117.2
    angle_coeff 205 harmonic 3.46907 117.2
    angle_coeff 206 harmonic 3.46907 117.2
    angle_coeff 207 harmonic 3.46907 117.2
    angle_coeff 208 harmonic 3.46907 117.2
    angle_coeff 209 harmonic 3.46907 117.2
    angle_coeff 210 harmonic 3.46907 117.2
    angle_coeff 211 harmonic 3.46907 117.2
    angle_coeff 212 harmonic 3.46907 117.2
    angle_coeff 213 harmonic 3.46907 117.2
    angle_coeff 214 harmonic 3.46907 117.2
    angle_coeff 215 harmonic 3.46907 117.2
    angle_coeff 216 harmonic 3.46907 117.2
    angle_coeff 217 harmonic 3.46907 117.2
    angle_coeff 218 harmonic 3.46907 117.2
    angle_coeff 219 harmonic 3.46907 117.2
    angle_coeff 220 harmonic 3.46907 117.2
    angle_coeff 221 harmonic 3.46907 117.2
    angle_coeff 222 harmonic 3.46907 117.2
    angle_coeff 223 harmonic 3.46907 120.4
    angle_coeff 224 harmonic 3.46907 120.4
    angle_coeff 225 harmonic 3.46907 120.4
    angle_coeff 226 harmonic 3.46907 120.4
    angle_coeff 227 harmonic 3.46907 120.4
    angle_coeff 228 harmonic 3.46907 120.4
    angle_coeff 229 harmonic 3.46907 120.4
    angle_coeff 230 harmonic 3.46907 120.4
    angle_coeff 231 harmonic 3.46907 120.4
    angle_coeff 232 harmonic 3.46907 120.4
    angle_coeff 233 harmonic 3.46907 120.4
    angle_coeff 234 harmonic 3.46907 120.4
    angle_coeff 235 harmonic 3.46907 120.4
    angle_coeff 236 harmonic 3.46907 120.4
    angle_coeff 237 harmonic 3.46907 120.4
    angle_coeff 238 harmonic 3.46907 120.4
    angle_coeff 239 harmonic 3.46907 120.4
    angle_coeff 240 harmonic 3.46907 120.4
    angle_coeff 241 harmonic 3.46907 120.4
    angle_coeff 242 harmonic 3.46907 120.4
    angle_coeff 243 harmonic 3.46907 120.4
    angle_coeff 244 harmonic 3.46907 120.4
    angle_coeff 245 harmonic 3.46907 120.4
    angle_coeff 246 harmonic 3.46907 120.4
    angle_coeff 247 harmonic 3.46907 120.4
    angle_coeff 248 harmonic 3.46907 120.4
    angle_coeff 249 harmonic 3.46907 120.4
    angle_coeff 250 harmonic 3.46907 120.4
    angle_coeff 251 harmonic 3.46907 120.4
    angle_coeff 252 harmonic 3.46907 120.4
    angle_coeff 253 harmonic 3.46907 120.4
    angle_coeff 254 harmonic 3.46907 120.4
    angle_coeff 255 harmonic 3.46907 120.4
    angle_coeff 256 harmonic 3.46907 120.4
    angle_coeff 257 harmonic 3.46907 120.4
    angle_coeff 258 harmonic 3.46907 120.4
    angle_coeff 259 harmonic 3.46907 120.4
    angle_coeff 260 harmonic 3.46907 120.4
    angle_coeff 261 harmonic 3.46907 120.4
    angle_coeff 262 harmonic 3.46907 120.4
    angle_coeff 263 harmonic 3.46907 120.4
    angle_coeff 264 harmonic 3.46907 120.4
    angle_coeff 265 harmonic 3.46907 120.4
    angle_coeff 266 harmonic 3.46907 120.4
    angle_coeff 267 harmonic 3.46907 120.4
    angle_coeff 268 harmonic 3.51244 111.4
    angle_coeff 269 harmonic 3.51244 111.4
    angle_coeff 270 harmonic 3.51244 111.4
    angle_coeff 271 harmonic 3.51244 111.4
    angle_coeff 272 harmonic 3.51244 111.4
    angle_coeff 273 harmonic 3.51244 111.4
    angle_coeff 274 harmonic 3.51244 111.4
    angle_coeff 275 harmonic 3.51244 111.4
    angle_coeff 276 harmonic 3.51244 111.4
    angle_coeff 277 harmonic 3.51244 111.4
    angle_coeff 278 harmonic 3.51244 111.4
    angle_coeff 279 harmonic 3.51244 111.4
    angle_coeff 280 harmonic 3.51244 111.4
    angle_coeff 281 harmonic 3.51244 111.4
    angle_coeff 282 harmonic 3.51244 111.4
    angle_coeff 283 harmonic 3.59916 123.4
    angle_coeff 284 harmonic 3.59916 123.4
    angle_coeff 285 harmonic 3.59916 123.4
    angle_coeff 286 harmonic 3.59916 123.4
    angle_coeff 287 harmonic 3.59916 123.4
    angle_coeff 288 harmonic 3.59916 123.4
    angle_coeff 289 harmonic 3.59916 123.4
    angle_coeff 290 harmonic 3.59916 123.4
    angle_coeff 291 harmonic 3.59916 123.4
    angle_coeff 292 harmonic 3.03544 114.2
    angle_coeff 293 harmonic 3.03544 114.2
    angle_coeff 294 harmonic 3.03544 114.2
    angle_coeff 295 harmonic 3.03544 116.6
    angle_coeff 296 harmonic 3.03544 116.6
    angle_coeff 297 harmonic 3.03544 116.6
    angle_coeff 298 harmonic 3.03544 116.6
    angle_coeff 299 harmonic 3.03544 116.6
    angle_coeff 300 harmonic 3.03544 116.6
    angle_coeff 301 harmonic 3.03544 116.6
    angle_coeff 302 harmonic 3.03544 116.6
    angle_coeff 303 harmonic 3.03544 116.6
    angle_coeff 304 harmonic 3.03544 116.6
    angle_coeff 305 harmonic 3.03544 116.6
    angle_coeff 306 harmonic 3.03544 116.6
    angle_coeff 307 harmonic 3.03544 116.6
    angle_coeff 308 harmonic 3.03544 116.6
    angle_coeff 309 harmonic 3.03544 116.6
    angle_coeff 310 harmonic 3.03544 116.6
    angle_coeff 311 harmonic 3.03544 116.6
    angle_coeff 312 harmonic 3.03544 116.6
    angle_coeff 313 harmonic 3.03544 116.6
    angle_coeff 314 harmonic 3.03544 116.6
    angle_coeff 315 harmonic 3.03544 116.6
    angle_coeff 316 harmonic 3.03544 116.6
    angle_coeff 317 harmonic 3.03544 116.6
    angle_coeff 318 harmonic 3.03544 116.6
    angle_coeff 319 harmonic 3.46907 122.9
    angle_coeff 320 harmonic 3.46907 122.9
    angle_coeff 321 harmonic 3.46907 122.9
    angle_coeff 322 harmonic 3.46907 122.9
    angle_coeff 323 harmonic 3.46907 122.9
    angle_coeff 324 harmonic 3.46907 122.9
    angle_coeff 325 harmonic 3.46907 122.9
    angle_coeff 326 harmonic 3.46907 122.9
    angle_coeff 327 harmonic 3.46907 122.9
    angle_coeff 328 harmonic 3.51244 111.4
    angle_coeff 329 harmonic 3.51244 111.4
    angle_coeff 330 harmonic 3.51244 111.4
    angle_coeff 331 harmonic 1.51772 115.0
    angle_coeff 332 harmonic 1.51772 115.0
    angle_coeff 333 harmonic 1.51772 115.0
    angle_coeff 334 harmonic 1.51772 115.0
    angle_coeff 335 harmonic 1.51772 115.0
    angle_coeff 336 harmonic 1.51772 115.0
    angle_coeff 337 harmonic 1.51772 115.0
    angle_coeff 338 harmonic 1.51772 115.0
    angle_coeff 339 harmonic 1.51772 115.0
    angle_coeff 340 harmonic 1.51772 115.0
    angle_coeff 341 harmonic 1.51772 115.0
    angle_coeff 342 harmonic 1.51772 115.0
    angle_coeff 343 harmonic 1.51772 115.0
    angle_coeff 344 harmonic 1.51772 115.0
    angle_coeff 345 harmonic 1.51772 115.0
    angle_coeff 346 harmonic 1.51772 115.0
    angle_coeff 347 harmonic 1.51772 115.0
    angle_coeff 348 harmonic 1.51772 115.0
    angle_coeff 349 harmonic 1.51772 115.0
    angle_coeff 350 harmonic 1.51772 115.0
    angle_coeff 351 harmonic 1.51772 115.0
    angle_coeff 352 harmonic 1.51772 115.0
    angle_coeff 353 harmonic 1.51772 115.0
    angle_coeff 354 harmonic 1.51772 115.0
    angle_coeff 355 harmonic 1.51772 115.0
    angle_coeff 356 harmonic 1.51772 115.0
    angle_coeff 357 harmonic 1.51772 115.0
    angle_coeff 358 harmonic 1.51772 115.0
    angle_coeff 359 harmonic 1.51772 115.0
    angle_coeff 360 harmonic 1.51772 115.0
    angle_coeff 361 harmonic 1.51772 115.0
    angle_coeff 362 harmonic 1.51772 115.0
    angle_coeff 363 harmonic 1.51772 115.0
    angle_coeff 364 harmonic 1.51772 115.0
    angle_coeff 365 harmonic 1.51772 115.0
    angle_coeff 366 harmonic 1.51772 115.0
    angle_coeff 367 harmonic 1.51772 115.0
    angle_coeff 368 harmonic 1.51772 115.0
    angle_coeff 369 harmonic 1.51772 115.0
    angle_coeff 370 harmonic 1.51772 115.0
    angle_coeff 371 harmonic 1.51772 115.0
    angle_coeff 372 harmonic 1.51772 115.0
    angle_coeff 373 harmonic 1.51772 115.0
    angle_coeff 374 harmonic 1.51772 115.0
    angle_coeff 375 harmonic 1.51772 115.0
    angle_coeff 376 harmonic 1.51772 115.0
    angle_coeff 377 harmonic 1.51772 115.0
    angle_coeff 378 harmonic 1.51772 115.0
    angle_coeff 379 harmonic 1.51772 115.0
    angle_coeff 380 harmonic 1.51772 115.0
    angle_coeff 381 harmonic 1.51772 115.0
    angle_coeff 382 harmonic 1.51772 115.0
    angle_coeff 383 harmonic 1.51772 115.0
    angle_coeff 384 harmonic 1.51772 115.0
    angle_coeff 385 harmonic 1.51772 115.0
    angle_coeff 386 harmonic 1.51772 115.0
    angle_coeff 387 harmonic 1.51772 115.0
    angle_coeff 388 harmonic 1.51772 115.0
    angle_coeff 389 harmonic 1.51772 115.0
    angle_coeff 390 harmonic 1.51772 115.0
    angle_coeff 391 harmonic 1.51772 115.0
    angle_coeff 392 harmonic 1.51772 115.0
    angle_coeff 393 harmonic 1.51772 115.0
    angle_coeff 394 harmonic 1.51772 115.0
    angle_coeff 395 harmonic 1.51772 115.0
    angle_coeff 396 harmonic 1.51772 115.0
    angle_coeff 397 harmonic 1.51772 115.0
    angle_coeff 398 harmonic 1.51772 115.0
    angle_coeff 399 harmonic 1.51772 115.0
    angle_coeff 400 harmonic 1.51772 115.0
    angle_coeff 401 harmonic 1.51772 115.0
    angle_coeff 402 harmonic 1.51772 115.0
    angle_coeff 403 harmonic 1.51772 123.0
    angle_coeff 404 harmonic 1.51772 123.0
    angle_coeff 405 harmonic 1.51772 123.0
    angle_coeff 406 harmonic 1.51772 123.0
    angle_coeff 407 harmonic 1.51772 123.0
    angle_coeff 408 harmonic 1.51772 123.0
    angle_coeff 409 harmonic 1.51772 123.0
    angle_coeff 410 harmonic 1.51772 123.0
    angle_coeff 411 harmonic 1.51772 123.0
    angle_coeff 412 harmonic 1.51772 123.0
    angle_coeff 413 harmonic 1.51772 123.0
    angle_coeff 414 harmonic 1.51772 123.0
    angle_coeff 415 harmonic 1.51772 123.0
    angle_coeff 416 harmonic 1.51772 123.0
    angle_coeff 417 harmonic 1.51772 123.0
    angle_coeff 418 harmonic 1.51772 123.0
    angle_coeff 419 harmonic 1.51772 123.0
    angle_coeff 420 harmonic 1.51772 123.0
    angle_coeff 421 harmonic 1.51772 123.0
    angle_coeff 422 harmonic 1.51772 123.0
    angle_coeff 423 harmonic 1.51772 123.0
    angle_coeff 424 harmonic 1.51772 123.0
    angle_coeff 425 harmonic 1.51772 123.0
    angle_coeff 426 harmonic 1.51772 123.0
    angle_coeff 427 harmonic 1.51772 123.0
    angle_coeff 428 harmonic 1.51772 123.0
    angle_coeff 429 harmonic 1.51772 123.0
    angle_coeff 430 harmonic 1.73454 114.0
    angle_coeff 431 harmonic 1.73454 114.0
    angle_coeff 432 harmonic 1.73454 114.0
    angle_coeff 433 harmonic 1.73454 114.0
    angle_coeff 434 harmonic 1.73454 114.0
    angle_coeff 435 harmonic 1.73454 114.0
    angle_coeff 436 harmonic 1.73454 114.0
    angle_coeff 437 harmonic 1.73454 114.0
    angle_coeff 438 harmonic 1.73454 114.0
    angle_coeff 439 harmonic 1.73454 115.0
    angle_coeff 440 harmonic 1.73454 115.0
    angle_coeff 441 harmonic 1.73454 115.0
    angle_coeff 442 harmonic 1.73454 115.0
    angle_coeff 443 harmonic 1.73454 115.0
    angle_coeff 444 harmonic 1.73454 115.0
    angle_coeff 445 harmonic 1.73454 115.0
    angle_coeff 446 harmonic 1.73454 115.0
    angle_coeff 447 harmonic 1.73454 115.0
    angle_coeff 448 harmonic 1.73454 115.0
    angle_coeff 449 harmonic 1.73454 115.0
    angle_coeff 450 harmonic 1.73454 115.0
    angle_coeff 451 harmonic 1.73454 115.0
    angle_coeff 452 harmonic 1.73454 115.0
    angle_coeff 453 harmonic 1.73454 115.0
    angle_coeff 454 harmonic 1.73454 115.0
    angle_coeff 455 harmonic 1.73454 115.0
    angle_coeff 456 harmonic 1.73454 115.0
    angle_coeff 457 harmonic 1.73454 115.0
    angle_coeff 458 harmonic 1.73454 115.0
    angle_coeff 459 harmonic 1.73454 115.0
    angle_coeff 460 harmonic 1.73454 115.0
    angle_coeff 461 harmonic 1.73454 115.0
    angle_coeff 462 harmonic 1.73454 115.0
    angle_coeff 463 harmonic 1.73454 115.0
    angle_coeff 464 harmonic 1.73454 115.0
    angle_coeff 465 harmonic 1.73454 115.0
    angle_coeff 466 harmonic 3.03544 115.5
    angle_coeff 467 harmonic 3.03544 115.5
    angle_coeff 468 harmonic 3.03544 115.5
    angle_coeff 469 harmonic 3.46907 125.3
    angle_coeff 470 harmonic 3.46907 125.3
    angle_coeff 471 harmonic 3.46907 125.3
    angle_coeff 472 harmonic 3.46907 125.3
    angle_coeff 473 harmonic 3.46907 125.3
    angle_coeff 474 harmonic 3.46907 125.3
    angle_coeff 475 harmonic 3.46907 125.3
    angle_coeff 476 harmonic 3.46907 125.3
    angle_coeff 477 harmonic 3.46907 125.3
    angle_coeff 478 harmonic 1.51772 113.0
    angle_coeff 479 harmonic 1.51772 113.0
    angle_coeff 480 harmonic 1.51772 113.0
    angle_coeff 481 harmonic 1.51772 113.0
    angle_coeff 482 harmonic 1.51772 113.0
    angle_coeff 483 harmonic 1.51772 113.0
    angle_coeff 484 harmonic 1.51772 113.0
    angle_coeff 485 harmonic 1.51772 113.0
    angle_coeff 486 harmonic 1.51772 113.0
    angle_coeff 487 harmonic 1.51772 113.0
    angle_coeff 488 harmonic 1.51772 113.0
    angle_coeff 489 harmonic 1.51772 113.0
    angle_coeff 490 harmonic 2.38499 108.5
    angle_coeff 491 harmonic 2.38499 108.5
    angle_coeff 492 harmonic 2.38499 108.5
    angle_coeff 493 harmonic 2.38499 108.5
    angle_coeff 494 harmonic 2.38499 108.5
    angle_coeff 495 harmonic 2.38499 108.5
    angle_coeff 496 harmonic 2.38499 108.5
    angle_coeff 497 harmonic 2.38499 108.5
    angle_coeff 498 harmonic 2.38499 108.5
    angle_coeff 499 harmonic 2.38499 108.5
    angle_coeff 500 harmonic 2.38499 108.5
    angle_coeff 501 harmonic 2.38499 108.5
    angle_coeff 502 harmonic 2.38499 108.5
    angle_coeff 503 harmonic 2.38499 108.5
    angle_coeff 504 harmonic 2.38499 108.5
    angle_coeff 505 harmonic 2.38499 108.5
    angle_coeff 506 harmonic 2.38499 108.5
    angle_coeff 507 harmonic 2.38499 108.5
    angle_coeff 508 harmonic 2.38499 108.5
    angle_coeff 509 harmonic 2.38499 108.5
    angle_coeff 510 harmonic 2.12481 105.4
    angle_coeff 511 harmonic 2.12481 105.4
    angle_coeff 512 harmonic 2.12481 105.4
    angle_coeff 513 harmonic 2.12481 105.4
    angle_coeff 514 harmonic 1.51772 109.0
    angle_coeff 515 harmonic 1.51772 109.0
    angle_coeff 516 harmonic 1.51772 109.0
    angle_coeff 517 harmonic 1.51772 109.0
    angle_coeff 518 harmonic 2.73189 111.1
    angle_coeff 519 harmonic 2.73189 111.1
    angle_coeff 520 harmonic 2.73189 111.1
    angle_coeff 521 harmonic 2.73189 111.1
    angle_coeff 522 harmonic 2.73189 111.1
    angle_coeff 523 harmonic 2.73189 111.1
    angle_coeff 524 harmonic 2.73189 111.1
    angle_coeff 525 harmonic 2.73189 111.1
    angle_coeff 526 harmonic 2.73189 111.1
    angle_coeff 527 harmonic 2.73189 111.1
    angle_coeff 528 harmonic 2.73189 111.1
    angle_coeff 529 harmonic 2.73189 111.1
    angle_coeff 530 harmonic 2.73189 111.1
    angle_coeff 531 harmonic 2.73189 111.1
    angle_coeff 532 harmonic 2.73189 111.1
    angle_coeff 533 harmonic 2.73189 111.1
    angle_coeff 534 harmonic 2.73189 111.1
    angle_coeff 535 harmonic 2.73189 111.1
    angle_coeff 536 harmonic 2.73189 111.1
    angle_coeff 537 harmonic 2.73189 111.1
    angle_coeff 538 harmonic 2.73189 111.1
    angle_coeff 539 harmonic 2.73189 111.1
    angle_coeff 540 harmonic 2.73189 111.1
    angle_coeff 541 harmonic 2.73189 111.1
    angle_coeff 542 harmonic 2.73189 111.1
    angle_coeff 543 harmonic 2.73189 111.1
    angle_coeff 544 harmonic 2.73189 111.1
    angle_coeff 545 harmonic 2.73189 111.1
    angle_coeff 546 harmonic 2.73189 111.1
    angle_coeff 547 harmonic 2.73189 111.1
    angle_coeff 548 harmonic 2.73189 111.1
    angle_coeff 549 harmonic 2.73189 111.1
    angle_coeff 550 harmonic 2.73189 111.1
    angle_coeff 551 harmonic 2.73189 111.1
    angle_coeff 552 harmonic 2.73189 111.1
    angle_coeff 553 harmonic 2.73189 111.1
    angle_coeff 554 harmonic 2.73189 111.1
    angle_coeff 555 harmonic 2.73189 111.1
    angle_coeff 556 harmonic 2.73189 111.1
    angle_coeff 557 harmonic 2.73189 111.1
    angle_coeff 558 harmonic 2.73189 111.1
    angle_coeff 559 harmonic 2.73189 111.1
    angle_coeff 560 harmonic 2.73189 111.1
    angle_coeff 561 harmonic 2.73189 111.1
    angle_coeff 562 harmonic 2.73189 111.1
    angle_coeff 563 harmonic 2.16817 109.5
    angle_coeff 564 harmonic 2.16817 109.5
    angle_coeff 565 harmonic 2.16817 109.5
    angle_coeff 566 harmonic 2.16817 109.5
    angle_coeff 567 harmonic 2.16817 109.5
    angle_coeff 568 harmonic 2.16817 109.5
    angle_coeff 569 harmonic 2.16817 109.5
    angle_coeff 570 harmonic 2.16817 109.5
    angle_coeff 571 harmonic 2.16817 109.5
    angle_coeff 572 harmonic 2.16817 109.5
    angle_coeff 573 harmonic 2.16817 109.5
    angle_coeff 574 harmonic 2.16817 109.5
    angle_coeff 575 harmonic 2.16817 109.5
    angle_coeff 576 harmonic 2.16817 109.5
    angle_coeff 577 harmonic 2.16817 109.5
    angle_coeff 578 harmonic 2.16817 109.5
    angle_coeff 579 harmonic 2.16817 109.5
    angle_coeff 580 harmonic 2.16817 109.5
    angle_coeff 581 harmonic 2.16817 109.5
    angle_coeff 582 harmonic 2.16817 109.5
    angle_coeff 583 harmonic 2.16817 109.5
    angle_coeff 584 harmonic 2.16817 109.5
    angle_coeff 585 harmonic 2.16817 109.5
    angle_coeff 586 harmonic 2.16817 109.5
    angle_coeff 587 harmonic 2.16817 109.5
    angle_coeff 588 harmonic 2.16817 109.5
    angle_coeff 589 harmonic 2.16817 109.5
    angle_coeff 590 harmonic 2.16817 109.5
    angle_coeff 591 harmonic 2.16817 109.5
    angle_coeff 592 harmonic 2.16817 109.5
    angle_coeff 593 harmonic 2.16817 109.5
    angle_coeff 594 harmonic 2.16817 109.5
    angle_coeff 595 harmonic 2.16817 109.5
    angle_coeff 596 harmonic 2.16817 109.5
    angle_coeff 597 harmonic 2.16817 109.5
    angle_coeff 598 harmonic 2.16817 109.5
    angle_coeff 599 harmonic 2.16817 109.5
    angle_coeff 600 harmonic 2.16817 109.5
    angle_coeff 601 harmonic 2.16817 109.5
    angle_coeff 602 harmonic 2.16817 109.5
    angle_coeff 603 harmonic 2.16817 109.5
    angle_coeff 604 harmonic 2.16817 109.5
    angle_coeff 605 harmonic 2.16817 109.5
    angle_coeff 606 harmonic 2.16817 109.5
    angle_coeff 607 harmonic 2.16817 109.5
    angle_coeff 608 harmonic 2.16817 109.5
    angle_coeff 609 harmonic 2.16817 109.5
    angle_coeff 610 harmonic 2.16817 109.5
    angle_coeff 611 harmonic 2.16817 109.5
    angle_coeff 612 harmonic 2.16817 109.5
    angle_coeff 613 harmonic 2.53025 112.7
    angle_coeff 614 harmonic 2.53025 112.7
    angle_coeff 615 harmonic 2.53025 112.7
    angle_coeff 616 harmonic 2.53025 112.7
    angle_coeff 617 harmonic 2.53025 112.7
    angle_coeff 618 harmonic 2.53025 112.7
    angle_coeff 619 harmonic 2.53025 112.7
    angle_coeff 620 harmonic 2.53025 112.7
    angle_coeff 621 harmonic 2.53025 112.7
    angle_coeff 622 harmonic 2.53025 112.7
    angle_coeff 623 harmonic 2.53025 112.7
    angle_coeff 624 harmonic 2.53025 112.7
    angle_coeff 625 harmonic 2.53025 112.7
    angle_coeff 626 harmonic 2.53025 112.7
    angle_coeff 627 harmonic 2.53025 112.7
    angle_coeff 628 harmonic 2.53025 112.7
    angle_coeff 629 harmonic 2.53025 112.7
    angle_coeff 630 harmonic 2.53025 112.7
    angle_coeff 631 harmonic 2.53025 112.7
    angle_coeff 632 harmonic 2.53025 112.7
    angle_coeff 633 harmonic 2.53025 112.7
    angle_coeff 634 harmonic 2.53025 112.7
    angle_coeff 635 harmonic 2.53025 112.7
    angle_coeff 636 harmonic 2.53025 112.7
    angle_coeff 637 harmonic 2.53025 112.7
    angle_coeff 638 harmonic 2.53025 112.7
    angle_coeff 639 harmonic 2.53025 112.7
    angle_coeff 640 harmonic 2.53025 112.7
    angle_coeff 641 harmonic 2.53025 112.7
    angle_coeff 642 harmonic 2.53025 112.7
    angle_coeff 643 harmonic 2.53025 112.7
    angle_coeff 644 harmonic 2.53025 112.7
    angle_coeff 645 harmonic 2.53025 112.7
    angle_coeff 646 harmonic 2.53025 112.7
    angle_coeff 647 harmonic 2.53025 112.7
    angle_coeff 648 harmonic 2.53025 112.7
    angle_coeff 649 harmonic 2.53025 112.7
    angle_coeff 650 harmonic 2.53025 112.7
    angle_coeff 651 harmonic 2.53025 112.7
    angle_coeff 652 harmonic 2.53025 112.7
    angle_coeff 653 harmonic 2.53025 112.7
    angle_coeff 654 harmonic 2.53025 112.7
    angle_coeff 655 harmonic 2.53025 112.7
    angle_coeff 656 harmonic 2.53025 112.7
    angle_coeff 657 harmonic 2.53025 112.7
    angle_coeff 658 harmonic 2.53025 112.7
    angle_coeff 659 harmonic 2.53025 112.7
    angle_coeff 660 harmonic 2.53025 112.7
    angle_coeff 661 harmonic 2.53025 112.7
    angle_coeff 662 harmonic 2.53025 112.7
    angle_coeff 663 harmonic 2.53025 112.7
    angle_coeff 664 harmonic 2.53025 112.7
    angle_coeff 665 harmonic 2.53025 112.7
    angle_coeff 666 harmonic 2.53025 112.7
    angle_coeff 667 harmonic 2.53025 112.7
    angle_coeff 668 harmonic 2.53025 112.7
    angle_coeff 669 harmonic 2.53025 112.7
    angle_coeff 670 harmonic 2.53025 112.7
    angle_coeff 671 harmonic 2.53025 112.7
    angle_coeff 672 harmonic 2.53025 112.7
    angle_coeff 673 harmonic 2.53025 112.7
    angle_coeff 674 harmonic 2.53025 112.7
    angle_coeff 675 harmonic 2.53025 112.7
    angle_coeff 676 harmonic 2.53025 112.7
    angle_coeff 677 harmonic 2.53025 112.7
    angle_coeff 678 harmonic 2.53025 112.7
    angle_coeff 679 harmonic 2.53025 112.7
    angle_coeff 680 harmonic 2.53025 112.7
    angle_coeff 681 harmonic 2.53025 112.7
    angle_coeff 682 harmonic 2.53025 112.7
    angle_coeff 683 harmonic 2.53025 112.7
    angle_coeff 684 harmonic 2.53025 112.7
    angle_coeff 685 harmonic 2.53025 112.7
    angle_coeff 686 harmonic 2.53025 112.7
    angle_coeff 687 harmonic 2.53025 112.7
    angle_coeff 688 harmonic 2.53025 112.7
    angle_coeff 689 harmonic 2.53025 112.7
    angle_coeff 690 harmonic 2.53025 112.7
    angle_coeff 691 harmonic 2.53025 112.7
    angle_coeff 692 harmonic 2.53025 112.7
    angle_coeff 693 harmonic 2.53025 112.7
    angle_coeff 694 harmonic 2.53025 112.7
    angle_coeff 695 harmonic 2.53025 112.7
    angle_coeff 696 harmonic 2.53025 112.7
    angle_coeff 697 harmonic 2.53025 112.7
    angle_coeff 698 harmonic 2.53025 112.7
    angle_coeff 699 harmonic 2.53025 112.7
    angle_coeff 700 harmonic 2.53025 112.7
    angle_coeff 701 harmonic 2.53025 112.7
    angle_coeff 702 harmonic 2.53025 112.7
    angle_coeff 703 harmonic 2.53025 112.7
    angle_coeff 704 harmonic 2.53025 112.7
    angle_coeff 705 harmonic 2.53025 112.7
    angle_coeff 706 harmonic 2.53025 112.7
    angle_coeff 707 harmonic 2.53025 112.7
    angle_coeff 708 harmonic 2.53025 112.7
    angle_coeff 709 harmonic 2.53025 112.7
    angle_coeff 710 harmonic 2.53025 112.7
    angle_coeff 711 harmonic 2.53025 112.7
    angle_coeff 712 harmonic 2.53025 112.7
    angle_coeff 713 harmonic 2.53025 112.7
    angle_coeff 714 harmonic 2.53025 112.7
    angle_coeff 715 harmonic 2.53025 112.7
    angle_coeff 716 harmonic 2.53025 112.7
    angle_coeff 717 harmonic 2.53025 112.7
    angle_coeff 718 harmonic 2.53025 112.7
    angle_coeff 719 harmonic 2.53025 112.7
    angle_coeff 720 harmonic 2.53025 112.7
    angle_coeff 721 harmonic 2.53025 112.7
    angle_coeff 722 harmonic 2.53025 112.7
    angle_coeff 723 harmonic 2.53025 112.7
    angle_coeff 724 harmonic 2.53025 112.7
    angle_coeff 725 harmonic 2.53025 112.7
    angle_coeff 726 harmonic 2.53025 112.7
    angle_coeff 727 harmonic 2.53025 112.7
    angle_coeff 728 harmonic 2.53025 112.7
    angle_coeff 729 harmonic 2.53025 112.7
    angle_coeff 730 harmonic 2.53025 112.7
    angle_coeff 731 harmonic 2.53025 112.7
    angle_coeff 732 harmonic 2.53025 112.7
    angle_coeff 733 harmonic 2.53025 112.7
    angle_coeff 734 harmonic 2.53025 112.7
    angle_coeff 735 harmonic 2.53025 112.7
    angle_coeff 736 harmonic 2.53025 112.7
    angle_coeff 737 harmonic 2.53025 112.7
    angle_coeff 738 harmonic 2.73189 111.1
    angle_coeff 739 harmonic 2.73189 111.1
    angle_coeff 740 harmonic 2.73189 111.1
    angle_coeff 741 harmonic 2.73189 111.1
    angle_coeff 742 harmonic 2.73189 111.1
    angle_coeff 743 harmonic 2.73189 111.1
    angle_coeff 744 harmonic 2.73189 111.1
    angle_coeff 745 harmonic 2.73189 111.1
    angle_coeff 746 harmonic 2.73189 111.1
    angle_coeff 747 harmonic 2.73189 111.1
    angle_coeff 748 harmonic 2.73189 111.1
    angle_coeff 749 harmonic 2.73189 111.1
    angle_coeff 750 harmonic 2.73189 111.1
    angle_coeff 751 harmonic 2.73189 111.1
    angle_coeff 752 harmonic 2.73189 111.1
    angle_coeff 753 harmonic 2.73189 111.1
    angle_coeff 754 harmonic 2.73189 111.1
    angle_coeff 755 harmonic 2.73189 111.1
    angle_coeff 756 harmonic 2.73189 111.1
    angle_coeff 757 harmonic 2.73189 111.1
    angle_coeff 758 harmonic 2.73189 111.1
    angle_coeff 759 harmonic 2.73189 111.1
    angle_coeff 760 harmonic 2.73189 111.1
    angle_coeff 761 harmonic 2.73189 111.1
    angle_coeff 762 harmonic 2.73189 111.1
    angle_coeff 763 harmonic 2.73189 111.1
    angle_coeff 764 harmonic 2.73189 111.1
    angle_coeff 765 harmonic 2.73189 111.1
    angle_coeff 766 harmonic 2.73189 111.1
    angle_coeff 767 harmonic 2.73189 111.1
    angle_coeff 768 harmonic 2.73189 111.1
    angle_coeff 769 harmonic 2.73189 111.1
    angle_coeff 770 harmonic 2.73189 111.1
    angle_coeff 771 harmonic 2.73189 111.1
    angle_coeff 772 harmonic 2.73189 111.1
    angle_coeff 773 harmonic 2.73189 111.1
    angle_coeff 774 harmonic 2.73189 111.1
    angle_coeff 775 harmonic 2.73189 111.1
    angle_coeff 776 harmonic 2.73189 111.1
    angle_coeff 777 harmonic 2.73189 111.1
    angle_coeff 778 harmonic 2.73189 111.1
    angle_coeff 779 harmonic 2.73189 111.1
    angle_coeff 780 harmonic 2.73189 111.1
    angle_coeff 781 harmonic 2.73189 111.1
    angle_coeff 782 harmonic 2.73189 111.1
    angle_coeff 783 harmonic 2.73189 111.1
    angle_coeff 784 harmonic 2.73189 111.1
    angle_coeff 785 harmonic 2.73189 111.1
    angle_coeff 786 harmonic 2.73189 111.1
    angle_coeff 787 harmonic 2.73189 111.1
    angle_coeff 788 harmonic 2.73189 111.1
    angle_coeff 789 harmonic 2.73189 111.1
    angle_coeff 790 harmonic 2.73189 111.1
    angle_coeff 791 harmonic 2.73189 111.1
    angle_coeff 792 harmonic 2.73189 111.1
    angle_coeff 793 harmonic 2.73189 111.1
    angle_coeff 794 harmonic 2.73189 111.1
    angle_coeff 795 harmonic 2.73189 111.1
    angle_coeff 796 harmonic 2.73189 111.1
    angle_coeff 797 harmonic 2.73189 111.1
    angle_coeff 798 harmonic 2.73189 111.1
    angle_coeff 799 harmonic 2.73189 111.1
    angle_coeff 800 harmonic 2.73189 111.1
    angle_coeff 801 harmonic 2.73189 111.1
    angle_coeff 802 harmonic 2.73189 111.1
    angle_coeff 803 harmonic 2.73189 111.1
    angle_coeff 804 harmonic 2.73189 111.1
    angle_coeff 805 harmonic 2.73189 111.1
    angle_coeff 806 harmonic 2.73189 111.1
    angle_coeff 807 harmonic 2.73189 111.1
    angle_coeff 808 harmonic 2.73189 111.1
    angle_coeff 809 harmonic 2.73189 111.1
    angle_coeff 810 harmonic 2.73189 111.1
    angle_coeff 811 harmonic 2.73189 111.1
    angle_coeff 812 harmonic 2.73189 111.1
    angle_coeff 813 harmonic 2.16817 109.5
    angle_coeff 814 harmonic 2.16817 109.5
    angle_coeff 815 harmonic 2.16817 109.5
    angle_coeff 816 harmonic 2.16817 109.5
    angle_coeff 817 harmonic 2.16817 109.5
    angle_coeff 818 harmonic 2.16817 109.5
    angle_coeff 819 harmonic 2.16817 109.5
    angle_coeff 820 harmonic 2.16817 109.5
    angle_coeff 821 harmonic 2.16817 109.5
    angle_coeff 822 harmonic 2.16817 109.5
    angle_coeff 823 harmonic 2.16817 109.5
    angle_coeff 824 harmonic 2.16817 109.5
    angle_coeff 825 harmonic 2.16817 109.5
    angle_coeff 826 harmonic 2.16817 109.5
    angle_coeff 827 harmonic 2.16817 109.5
    angle_coeff 828 harmonic 2.16817 109.5
    angle_coeff 829 harmonic 2.16817 109.5
    angle_coeff 830 harmonic 2.16817 109.5
    angle_coeff 831 harmonic 2.16817 109.5
    angle_coeff 832 harmonic 2.16817 109.5
    angle_coeff 833 harmonic 2.16817 109.5
    angle_coeff 834 harmonic 2.16817 109.5
    angle_coeff 835 harmonic 2.16817 109.5
    angle_coeff 836 harmonic 2.16817 109.5
    angle_coeff 837 harmonic 2.16817 109.5
    angle_coeff 838 harmonic 2.16817 109.5
    angle_coeff 839 harmonic 2.16817 109.5
    angle_coeff 840 harmonic 2.16817 109.5
    angle_coeff 841 harmonic 2.16817 109.5
    angle_coeff 842 harmonic 2.16817 109.5
    angle_coeff 843 harmonic 2.16817 109.5
    angle_coeff 844 harmonic 2.16817 109.5
    angle_coeff 845 harmonic 2.16817 109.5
    angle_coeff 846 harmonic 2.16817 109.5
    angle_coeff 847 harmonic 2.16817 109.5
    angle_coeff 848 harmonic 2.16817 109.5
    angle_coeff 849 harmonic 2.16817 109.5
    angle_coeff 850 harmonic 2.16817 109.5
    angle_coeff 851 harmonic 2.16817 109.5
    angle_coeff 852 harmonic 2.16817 109.5
    angle_coeff 853 harmonic 2.16817 109.5
    angle_coeff 854 harmonic 2.16817 109.5
    angle_coeff 855 harmonic 2.16817 109.5
    angle_coeff 856 harmonic 2.16817 109.5
    angle_coeff 857 harmonic 2.16817 109.5
    angle_coeff 858 harmonic 2.73189 110.1
    angle_coeff 859 harmonic 2.73189 110.1
    angle_coeff 860 harmonic 2.73189 110.1
    angle_coeff 861 harmonic 2.73189 110.1
    angle_coeff 862 harmonic 2.73189 110.1
    angle_coeff 863 harmonic 2.73189 110.1
    angle_coeff 864 harmonic 2.73189 110.1
    angle_coeff 865 harmonic 2.73189 110.1
    angle_coeff 866 harmonic 2.73189 110.1
    angle_coeff 867 harmonic 2.73189 110.1
    angle_coeff 868 harmonic 2.73189 110.1
    angle_coeff 869 harmonic 2.73189 110.1
    angle_coeff 870 harmonic 2.73189 110.1
    angle_coeff 871 harmonic 2.73189 110.1
    angle_coeff 872 harmonic 2.73189 110.1
    angle_coeff 873 harmonic 3.46907 109.7
    angle_coeff 874 harmonic 3.46907 109.7
    angle_coeff 875 harmonic 3.46907 109.7
    angle_coeff 876 harmonic 3.46907 109.7
    angle_coeff 877 harmonic 3.46907 109.7
    angle_coeff 878 harmonic 3.46907 109.7
    angle_coeff 879 harmonic 3.46907 109.7
    angle_coeff 880 harmonic 3.46907 109.7
    angle_coeff 881 harmonic 3.46907 109.7
    angle_coeff 882 harmonic 3.46907 109.7
    angle_coeff 883 harmonic 3.46907 109.7
    angle_coeff 884 harmonic 3.46907 109.7
    angle_coeff 885 harmonic 3.46907 109.7
    angle_coeff 886 harmonic 3.46907 109.7
    angle_coeff 887 harmonic 3.46907 109.7
    angle_coeff 888 harmonic 3.46907 109.7
    angle_coeff 889 harmonic 3.46907 109.7
    angle_coeff 890 harmonic 3.46907 109.7
    angle_coeff 891 harmonic 3.46907 109.7
    angle_coeff 892 harmonic 3.46907 109.7
    angle_coeff 893 harmonic 3.46907 109.7
    angle_coeff 894 harmonic 3.46907 109.7
    angle_coeff 895 harmonic 3.46907 109.7
    angle_coeff 896 harmonic 3.46907 109.7
    angle_coeff 897 harmonic 3.46907 109.7
    angle_coeff 898 harmonic 1.43099 107.8
    angle_coeff 899 harmonic 1.43099 107.8
    angle_coeff 900 harmonic 1.43099 107.8
    angle_coeff 901 harmonic 1.43099 107.8
    angle_coeff 902 harmonic 1.43099 107.8
    angle_coeff 903 harmonic 1.43099 107.8
    angle_coeff 904 harmonic 1.43099 107.8
    angle_coeff 905 harmonic 1.43099 107.8
    angle_coeff 906 harmonic 1.43099 107.8
    angle_coeff 907 harmonic 1.43099 107.8
    angle_coeff 908 harmonic 1.43099 107.8
    angle_coeff 909 harmonic 1.43099 107.8
    angle_coeff 910 harmonic 1.43099 107.8
    angle_coeff 911 harmonic 1.43099 107.8
    angle_coeff 912 harmonic 1.43099 107.8
    angle_coeff 913 harmonic 1.43099 107.8
    angle_coeff 914 harmonic 1.43099 107.8
    angle_coeff 915 harmonic 1.43099 107.8
    angle_coeff 916 harmonic 1.43099 107.8
    angle_coeff 917 harmonic 1.43099 107.8
    angle_coeff 918 harmonic 1.43099 107.8
    angle_coeff 919 harmonic 1.43099 107.8
    angle_coeff 920 harmonic 1.43099 107.8
    angle_coeff 921 harmonic 1.43099 107.8
    angle_coeff 922 harmonic 1.43099 107.8
    angle_coeff 923 harmonic 1.43099 107.8
    angle_coeff 924 harmonic 1.43099 107.8
    angle_coeff 925 harmonic 1.43099 107.8
    angle_coeff 926 harmonic 1.43099 107.8
    angle_coeff 927 harmonic 1.43099 107.8
    angle_coeff 928 harmonic 1.43099 107.8
    angle_coeff 929 harmonic 1.43099 107.8
    angle_coeff 930 harmonic 1.43099 107.8
    angle_coeff 931 harmonic 1.43099 107.8
    angle_coeff 932 harmonic 1.43099 107.8
    angle_coeff 933 harmonic 1.43099 107.8
    angle_coeff 934 harmonic 1.43099 107.8
    angle_coeff 935 harmonic 1.43099 107.8
    angle_coeff 936 harmonic 1.43099 107.8
    angle_coeff 937 harmonic 1.43099 107.8
    angle_coeff 938 harmonic 1.43099 107.8
    angle_coeff 939 harmonic 1.43099 107.8
    angle_coeff 940 harmonic 1.43099 107.8
    angle_coeff 941 harmonic 1.43099 107.8
    angle_coeff 942 harmonic 1.43099 107.8
    angle_coeff 943 harmonic 1.51772 109.5
    angle_coeff 944 harmonic 1.51772 109.5
    angle_coeff 945 harmonic 1.51772 109.5
    angle_coeff 946 harmonic 1.51772 109.5
    angle_coeff 947 harmonic 1.51772 109.5
    angle_coeff 948 harmonic 1.51772 109.5
    angle_coeff 949 harmonic 1.51772 109.5
    angle_coeff 950 harmonic 1.51772 109.5
    angle_coeff 951 harmonic 1.51772 109.5
    angle_coeff 952 harmonic 1.51772 109.5
    angle_coeff 953 harmonic 1.51772 109.5
    angle_coeff 954 harmonic 1.51772 109.5
    angle_coeff 955 harmonic 1.51772 109.5
    angle_coeff 956 harmonic 1.51772 109.5
    angle_coeff 957 harmonic 1.51772 109.5
    angle_coeff 958 harmonic 1.51772 109.5
    angle_coeff 959 harmonic 1.51772 109.5
    angle_coeff 960 harmonic 1.51772 109.5
    angle_coeff 961 harmonic 1.51772 109.5
    angle_coeff 962 harmonic 1.51772 109.5
    angle_coeff 963 harmonic 1.51772 109.5
    angle_coeff 964 harmonic 1.51772 109.5
    angle_coeff 965 harmonic 1.51772 109.5
    angle_coeff 966 harmonic 1.51772 109.5
    angle_coeff 967 harmonic 1.51772 109.5
    angle_coeff 968 harmonic 1.51772 109.5
    angle_coeff 969 harmonic 1.51772 109.5
    angle_coeff 970 harmonic 1.51772 109.5
    angle_coeff 971 harmonic 1.51772 109.5
    angle_coeff 972 harmonic 1.51772 109.5
    angle_coeff 973 harmonic 1.51772 109.5
    angle_coeff 974 harmonic 1.51772 109.5
    angle_coeff 975 harmonic 1.51772 109.5
    angle_coeff 976 harmonic 1.51772 109.5
    angle_coeff 977 harmonic 1.51772 109.5
    angle_coeff 978 harmonic 1.51772 109.5
    angle_coeff 979 harmonic 1.51772 109.5
    angle_coeff 980 harmonic 1.51772 109.5
    angle_coeff 981 harmonic 1.51772 109.5
    angle_coeff 982 harmonic 1.51772 109.5
    angle_coeff 983 harmonic 1.51772 109.5
    angle_coeff 984 harmonic 1.51772 109.5
    angle_coeff 985 harmonic 1.51772 109.5
    angle_coeff 986 harmonic 1.51772 109.5
    angle_coeff 987 harmonic 1.51772 109.5
    angle_coeff 988 harmonic 1.51772 109.5
    angle_coeff 989 harmonic 1.51772 109.5
    angle_coeff 990 harmonic 1.51772 109.5
    angle_coeff 991 harmonic 1.51772 109.5
    angle_coeff 992 harmonic 1.51772 109.5
    angle_coeff 993 harmonic 1.51772 109.5
    angle_coeff 994 harmonic 1.51772 109.5
    angle_coeff 995 harmonic 1.51772 109.5
    angle_coeff 996 harmonic 1.51772 109.5
    angle_coeff 997 harmonic 1.51772 109.5
    angle_coeff 998 harmonic 1.51772 109.5
    angle_coeff 999 harmonic 1.51772 109.5
    angle_coeff 1000 harmonic 1.51772 109.5
    angle_coeff 1001 harmonic 1.51772 109.5
    angle_coeff 1002 harmonic 1.51772 109.5
    angle_coeff 1003 harmonic 1.51772 109.5
    angle_coeff 1004 harmonic 1.51772 109.5
    angle_coeff 1005 harmonic 1.51772 109.5
    angle_coeff 1006 harmonic 1.51772 109.5
    angle_coeff 1007 harmonic 1.51772 109.5
    angle_coeff 1008 harmonic 1.51772 109.5
    angle_coeff 1009 harmonic 1.51772 109.5
    angle_coeff 1010 harmonic 1.51772 109.5
    angle_coeff 1011 harmonic 1.51772 109.5
    angle_coeff 1012 harmonic 1.51772 109.5
    angle_coeff 1013 harmonic 1.51772 109.5
    angle_coeff 1014 harmonic 1.51772 109.5
    angle_coeff 1015 harmonic 1.51772 109.5
    angle_coeff 1016 harmonic 1.51772 109.5
    angle_coeff 1017 harmonic 1.51772 109.5
    angle_coeff 1018 harmonic 1.51772 109.5
    angle_coeff 1019 harmonic 1.51772 109.5
    angle_coeff 1020 harmonic 1.51772 109.5
    angle_coeff 1021 harmonic 1.51772 109.5
    angle_coeff 1022 harmonic 1.51772 109.5
    angle_coeff 1023 harmonic 1.51772 109.5
    angle_coeff 1024 harmonic 1.51772 109.5
    angle_coeff 1025 harmonic 1.51772 109.5
    angle_coeff 1026 harmonic 1.51772 109.5
    angle_coeff 1027 harmonic 1.51772 109.5
    angle_coeff 1028 harmonic 1.51772 109.5
    angle_coeff 1029 harmonic 1.51772 109.5
    angle_coeff 1030 harmonic 1.51772 109.5
    angle_coeff 1031 harmonic 1.51772 109.5
    angle_coeff 1032 harmonic 1.51772 109.5
    angle_coeff 1033 harmonic 1.51772 109.5
    angle_coeff 1034 harmonic 1.51772 109.5
    angle_coeff 1035 harmonic 1.51772 109.5
    angle_coeff 1036 harmonic 1.51772 109.5
    angle_coeff 1037 harmonic 1.51772 109.5
    angle_coeff 1038 harmonic 1.51772 109.5
    angle_coeff 1039 harmonic 1.51772 109.5
    angle_coeff 1040 harmonic 1.51772 109.5
    angle_coeff 1041 harmonic 1.51772 109.5
    angle_coeff 1042 harmonic 1.51772 109.5
    angle_coeff 1043 harmonic 1.51772 109.5
    angle_coeff 1044 harmonic 1.51772 109.5
    angle_coeff 1045 harmonic 1.51772 109.5
    angle_coeff 1046 harmonic 1.51772 109.5
    angle_coeff 1047 harmonic 1.51772 109.5
    angle_coeff 1048 harmonic 1.62613 110.7
    angle_coeff 1049 harmonic 1.62613 110.7
    angle_coeff 1050 harmonic 1.62613 110.7
    angle_coeff 1051 harmonic 1.62613 110.7
    angle_coeff 1052 harmonic 1.62613 110.7
    angle_coeff 1053 harmonic 1.62613 110.7
    angle_coeff 1054 harmonic 1.62613 110.7
    angle_coeff 1055 harmonic 1.62613 110.7
    angle_coeff 1056 harmonic 1.62613 110.7
    angle_coeff 1057 harmonic 1.62613 110.7
    angle_coeff 1058 harmonic 1.62613 110.7
    angle_coeff 1059 harmonic 1.62613 110.7
    angle_coeff 1060 harmonic 1.62613 110.7
    angle_coeff 1061 harmonic 1.62613 110.7
    angle_coeff 1062 harmonic 1.62613 110.7
    angle_coeff 1063 harmonic 1.62613 110.7
    angle_coeff 1064 harmonic 1.62613 110.7
    angle_coeff 1065 harmonic 1.62613 110.7
    angle_coeff 1066 harmonic 1.62613 110.7
    angle_coeff 1067 harmonic 1.62613 110.7
    angle_coeff 1068 harmonic 1.62613 110.7
    angle_coeff 1069 harmonic 1.62613 110.7
    angle_coeff 1070 harmonic 1.62613 110.7
    angle_coeff 1071 harmonic 1.62613 110.7
    angle_coeff 1072 harmonic 1.62613 110.7
    angle_coeff 1073 harmonic 1.62613 110.7
    angle_coeff 1074 harmonic 1.62613 110.7
    angle_coeff 1075 harmonic 1.62613 110.7
    angle_coeff 1076 harmonic 1.62613 110.7
    angle_coeff 1077 harmonic 1.62613 110.7
    angle_coeff 1078 harmonic 1.62613 110.7
    angle_coeff 1079 harmonic 1.62613 110.7
    angle_coeff 1080 harmonic 1.62613 110.7
    angle_coeff 1081 harmonic 1.62613 110.7
    angle_coeff 1082 harmonic 1.62613 110.7
    angle_coeff 1083 harmonic 1.62613 110.7
    angle_coeff 1084 harmonic 1.62613 110.7
    angle_coeff 1085 harmonic 1.62613 110.7
    angle_coeff 1086 harmonic 1.62613 110.7
    angle_coeff 1087 harmonic 1.62613 110.7
    angle_coeff 1088 harmonic 1.62613 110.7
    angle_coeff 1089 harmonic 1.62613 110.7
    angle_coeff 1090 harmonic 1.62613 110.7
    angle_coeff 1091 harmonic 1.62613 110.7
    angle_coeff 1092 harmonic 1.62613 110.7
    angle_coeff 1093 harmonic 1.62613 110.7
    angle_coeff 1094 harmonic 1.62613 110.7
    angle_coeff 1095 harmonic 1.62613 110.7
    angle_coeff 1096 harmonic 1.62613 110.7
    angle_coeff 1097 harmonic 1.62613 110.7
    angle_coeff 1098 harmonic 1.62613 110.7
    angle_coeff 1099 harmonic 1.62613 110.7
    angle_coeff 1100 harmonic 1.62613 110.7
    angle_coeff 1101 harmonic 1.62613 110.7
    angle_coeff 1102 harmonic 1.62613 110.7
    angle_coeff 1103 harmonic 1.62613 110.7
    angle_coeff 1104 harmonic 1.62613 110.7
    angle_coeff 1105 harmonic 1.62613 110.7
    angle_coeff 1106 harmonic 1.62613 110.7
    angle_coeff 1107 harmonic 1.62613 110.7
    angle_coeff 1108 harmonic 1.62613 110.7
    angle_coeff 1109 harmonic 1.62613 110.7
    angle_coeff 1110 harmonic 1.62613 110.7
    angle_coeff 1111 harmonic 1.62613 110.7
    angle_coeff 1112 harmonic 1.62613 110.7
    angle_coeff 1113 harmonic 1.62613 110.7
    angle_coeff 1114 harmonic 1.62613 110.7
    angle_coeff 1115 harmonic 1.62613 110.7
    angle_coeff 1116 harmonic 1.62613 110.7
    angle_coeff 1117 harmonic 1.62613 110.7
    angle_coeff 1118 harmonic 1.62613 110.7
    angle_coeff 1119 harmonic 1.62613 110.7
    angle_coeff 1120 harmonic 1.62613 110.7
    angle_coeff 1121 harmonic 1.62613 110.7
    angle_coeff 1122 harmonic 1.62613 110.7
    angle_coeff 1123 harmonic 1.51772 109.5
    angle_coeff 1124 harmonic 1.51772 109.5
    angle_coeff 1125 harmonic 1.51772 109.5
    angle_coeff 1126 harmonic 1.51772 109.5
    angle_coeff 1127 harmonic 1.51772 109.5
    angle_coeff 1128 harmonic 1.51772 109.5
    angle_coeff 1129 harmonic 1.51772 109.5
    angle_coeff 1130 harmonic 1.51772 109.5
    angle_coeff 1131 harmonic 1.51772 109.5
    angle_coeff 1132 harmonic 1.51772 109.5
    angle_coeff 1133 harmonic 1.51772 109.5
    angle_coeff 1134 harmonic 1.51772 109.5
    angle_coeff 1135 harmonic 1.51772 109.5
    angle_coeff 1136 harmonic 1.51772 109.5
    angle_coeff 1137 harmonic 1.51772 109.5
    angle_coeff 1138 harmonic 2.73189 111.1
    angle_coeff 1139 harmonic 2.73189 111.1
    angle_coeff 1140 harmonic 2.73189 111.1
    angle_coeff 1141 harmonic 2.73189 111.1
    angle_coeff 1142 harmonic 2.73189 111.1
    angle_coeff 1143 harmonic 2.73189 111.1
    angle_coeff 1144 harmonic 2.73189 111.1
    angle_coeff 1145 harmonic 2.73189 111.1
    angle_coeff 1146 harmonic 2.73189 111.1
    angle_coeff 1147 harmonic 2.73189 111.1
    angle_coeff 1148 harmonic 2.73189 111.1
    angle_coeff 1149 harmonic 2.73189 111.1
    angle_coeff 1150 harmonic 2.73189 111.1
    angle_coeff 1151 harmonic 2.73189 111.1
    angle_coeff 1152 harmonic 2.73189 111.1
    angle_coeff 1153 harmonic 2.73189 111.1
    angle_coeff 1154 harmonic 2.73189 111.1
    angle_coeff 1155 harmonic 2.73189 111.1
    angle_coeff 1156 harmonic 2.73189 111.1
    angle_coeff 1157 harmonic 2.73189 111.1
    angle_coeff 1158 harmonic 2.73189 111.1
    angle_coeff 1159 harmonic 2.73189 111.1
    angle_coeff 1160 harmonic 2.73189 111.1
    angle_coeff 1161 harmonic 2.73189 111.1
    angle_coeff 1162 harmonic 2.73189 111.1
    angle_coeff 1163 harmonic 2.73189 112.4
    angle_coeff 1164 harmonic 2.73189 112.4
    angle_coeff 1165 harmonic 2.73189 112.4
    angle_coeff 1166 harmonic 2.73189 112.4
    angle_coeff 1167 harmonic 2.73189 112.4
    angle_coeff 1168 harmonic 2.6018 109.5
    angle_coeff 1169 harmonic 2.6018 109.5
    angle_coeff 1170 harmonic 2.6018 109.5
    angle_coeff 1171 harmonic 2.6018 109.5
    angle_coeff 1172 harmonic 2.6018 109.5
    angle_coeff 1173 harmonic 2.6018 109.5
    angle_coeff 1174 harmonic 2.6018 109.5
    angle_coeff 1175 harmonic 2.6018 109.5
    angle_coeff 1176 harmonic 2.6018 109.5
    angle_coeff 1177 harmonic 2.6018 109.5
    angle_coeff 1178 harmonic 2.6018 109.5
    angle_coeff 1179 harmonic 2.6018 109.5
    angle_coeff 1180 harmonic 2.6018 109.5
    angle_coeff 1181 harmonic 2.6018 109.5
    angle_coeff 1182 harmonic 2.6018 109.5
    angle_coeff 1183 harmonic 2.6018 109.5
    angle_coeff 1184 harmonic 2.6018 109.5
    angle_coeff 1185 harmonic 2.6018 109.5
    angle_coeff 1186 harmonic 2.6018 109.5
    angle_coeff 1187 harmonic 2.6018 109.5
    angle_coeff 1188 harmonic 2.6018 109.5
    angle_coeff 1189 harmonic 2.6018 109.5
    angle_coeff 1190 harmonic 2.6018 109.5
    angle_coeff 1191 harmonic 2.6018 109.5
    angle_coeff 1192 harmonic 2.6018 109.5
    angle_coeff 1193 harmonic 3.59916 116.9
    angle_coeff 1194 harmonic 3.59916 116.9
    angle_coeff 1195 harmonic 3.59916 116.9
    angle_coeff 1196 harmonic 3.59916 116.9
    angle_coeff 1197 harmonic 3.59916 116.9
    angle_coeff 1198 harmonic 3.59916 116.9
    angle_coeff 1199 harmonic 3.59916 116.9
    angle_coeff 1200 harmonic 3.59916 116.9
    angle_coeff 1201 harmonic 3.59916 116.9
    angle_coeff 1202 harmonic 3.59916 116.9
    angle_coeff 1203 harmonic 3.59916 116.9
    angle_coeff 1204 harmonic 3.59916 116.9
    angle_coeff 1205 harmonic 3.59916 116.9
    angle_coeff 1206 harmonic 3.59916 116.9
    angle_coeff 1207 harmonic 3.59916 116.9
    angle_coeff 1208 harmonic 3.25226 111.0
    angle_coeff 1209 harmonic 3.25226 111.0
    angle_coeff 1210 harmonic 3.25226 111.0
    angle_coeff 1211 harmonic 3.25226 111.0
    angle_coeff 1212 harmonic 3.25226 111.0
    angle_coeff 1213 harmonic 3.03544 126.4
    angle_coeff 1214 harmonic 3.03544 126.4
    angle_coeff 1215 harmonic 3.03544 126.4
    angle_coeff 1216 harmonic 3.03544 126.4
    angle_coeff 1217 harmonic 3.03544 126.4
    angle_coeff 1218 harmonic 3.03544 126.4
    angle_coeff 1219 harmonic 3.03544 126.4
    angle_coeff 1220 harmonic 3.03544 126.4
    angle_coeff 1221 harmonic 3.03544 126.4
    angle_coeff 1222 harmonic 1.99472 115.7
    angle_coeff 1223 harmonic 1.99472 115.7
    angle_coeff 1224 harmonic 1.99472 115.7
    angle_coeff 1225 harmonic 1.99472 115.7
    angle_coeff 1226 harmonic 1.99472 115.7
    angle_coeff 1227 harmonic 1.99472 115.7
    angle_coeff 1228 harmonic 2.16817 118.0
    angle_coeff 1229 harmonic 2.16817 118.0
    angle_coeff 1230 harmonic 2.16817 118.0
    angle_coeff 1231 harmonic 2.16817 118.0
    angle_coeff 1232 harmonic 2.16817 118.0
    angle_coeff 1233 harmonic 2.16817 118.0
    angle_coeff 1234 harmonic 2.16817 118.0
    angle_coeff 1235 harmonic 2.16817 118.0
    angle_coeff 1236 harmonic 2.16817 118.0
    angle_coeff 1237 harmonic 2.16817 118.0
    angle_coeff 1238 harmonic 2.16817 118.0
    angle_coeff 1239 harmonic 2.16817 118.0
    angle_coeff 1240 harmonic 2.16817 118.0
    angle_coeff 1241 harmonic 2.16817 118.0
    angle_coeff 1242 harmonic 2.16817 118.0
    angle_coeff 1243 harmonic 2.16817 118.0
    angle_coeff 1244 harmonic 2.16817 118.0
    angle_coeff 1245 harmonic 2.16817 118.0
    angle_coeff 1246 harmonic 2.16817 118.0
    angle_coeff 1247 harmonic 2.16817 118.0
    angle_coeff 1248 harmonic 2.16817 118.0
    angle_coeff 1249 harmonic 2.16817 118.0
    angle_coeff 1250 harmonic 2.16817 118.0
    angle_coeff 1251 harmonic 2.16817 118.0
    angle_coeff 1252 harmonic 2.16817 118.0
    angle_coeff 1253 harmonic 2.16817 121.9
    angle_coeff 1254 harmonic 2.16817 121.9
    angle_coeff 1255 harmonic 2.16817 121.9
    angle_coeff 1256 harmonic 2.16817 121.9
    angle_coeff 1257 harmonic 2.16817 121.9
    angle_coeff 1258 harmonic 2.16817 121.9
    angle_coeff 1259 harmonic 2.16817 121.9
    angle_coeff 1260 harmonic 2.16817 121.9
    angle_coeff 1261 harmonic 2.16817 121.9
    angle_coeff 1262 harmonic 2.16817 121.9
    angle_coeff 1263 harmonic 2.16817 121.9
    angle_coeff 1264 harmonic 2.16817 121.9
    angle_coeff 1265 harmonic 2.16817 121.9
    angle_coeff 1266 harmonic 2.16817 121.9
    angle_coeff 1267 harmonic 2.16817 121.9
    angle_coeff 1268 harmonic 3.03544 108.6
    angle_coeff 1269 harmonic 3.03544 108.6
    angle_coeff 1270 harmonic 3.03544 108.6
    angle_coeff 1271 harmonic 1.51772 110.2
    angle_coeff 1272 harmonic 1.51772 110.2
    angle_coeff 1273 harmonic 1.51772 119.8
    angle_coeff 1274 harmonic 1.51772 119.8
    angle_coeff 1275 harmonic 1.51772 119.8
    angle_coeff 1276 harmonic 1.51772 120.0
    angle_coeff 1277 harmonic 1.64781 118.4
    angle_coeff 1278 harmonic 1.64781 118.4
    angle_coeff 1279 harmonic 1.64781 118.4
    angle_coeff 1280 harmonic 1.64781 118.4
    angle_coeff 1281 harmonic 1.64781 118.4
    angle_coeff 1282 harmonic 3.03544 119.7
    angle_coeff 1283 harmonic 3.03544 119.7
    angle_coeff 1284 harmonic 3.03544 119.7
    angle_coeff 1285 harmonic 3.03544 119.7
    angle_coeff 1286 harmonic 3.03544 119.7
    angle_coeff 1287 harmonic 3.03544 119.7
    angle_coeff 1288 harmonic 3.03544 119.7
    angle_coeff 1289 harmonic 3.03544 119.7
    angle_coeff 1290 harmonic 3.03544 119.7
    angle_coeff 1291 harmonic 3.03544 119.7
    angle_coeff 1292 harmonic 3.03544 119.7
    angle_coeff 1293 harmonic 3.03544 119.7
    angle_coeff 1294 harmonic 3.03544 119.7
    angle_coeff 1295 harmonic 3.03544 119.7
    angle_coeff 1296 harmonic 3.03544 119.7
    angle_coeff 1297 harmonic 3.03544 130.0
    angle_coeff 1298 harmonic 3.03544 130.0
    angle_coeff 1299 harmonic 3.03544 130.0
    angle_coeff 1300 harmonic 3.03544 130.0
    angle_coeff 1301 harmonic 3.03544 130.0
    angle_coeff 1302 harmonic 3.03544 130.0
    angle_coeff 1303 harmonic 3.03544 130.0
    angle_coeff 1304 harmonic 3.03544 130.0
    angle_coeff 1305 harmonic 3.03544 130.0
    angle_coeff 1306 harmonic 3.03544 130.0
    angle_coeff 1307 harmonic 3.03544 130.0
    angle_coeff 1308 harmonic 3.03544 130.0
    angle_coeff 1309 harmonic 3.03544 130.0
    angle_coeff 1310 harmonic 3.03544 130.0
    angle_coeff 1311 harmonic 3.03544 130.0
    angle_coeff 1312 harmonic 3.03544 130.0
    angle_coeff 1313 harmonic 3.03544 130.0
    angle_coeff 1314 harmonic 3.03544 130.0
    angle_coeff 1315 harmonic 3.03544 130.0
    angle_coeff 1316 harmonic 3.03544 130.0
    angle_coeff 1317 harmonic 3.03544 130.0
    angle_coeff 1318 harmonic 3.03544 130.0
    angle_coeff 1319 harmonic 3.03544 130.0
    angle_coeff 1320 harmonic 3.03544 130.0
    angle_coeff 1321 harmonic 3.03544 130.0
    angle_coeff 1322 harmonic 1.51772 114.5
    angle_coeff 1323 harmonic 1.51772 114.5
    angle_coeff 1324 harmonic 1.51772 114.5
    angle_coeff 1325 harmonic 1.51772 117.0
    angle_coeff 1326 harmonic 1.51772 117.0
    angle_coeff 1327 harmonic 1.51772 117.0
    angle_coeff 1328 harmonic 1.51772 117.0
    angle_coeff 1329 harmonic 1.51772 117.0
    angle_coeff 1330 harmonic 1.51772 117.0
    angle_coeff 1331 harmonic 1.51772 117.0
    angle_coeff 1332 harmonic 1.51772 117.0
    angle_coeff 1333 harmonic 1.51772 117.0
    angle_coeff 1334 harmonic 1.51772 117.0
    angle_coeff 1335 harmonic 1.51772 117.0
    angle_coeff 1336 harmonic 1.51772 117.0
    angle_coeff 1337 harmonic 1.51772 117.0
    angle_coeff 1338 harmonic 1.51772 117.0
    angle_coeff 1339 harmonic 1.51772 117.0
    angle_coeff 1340 harmonic 1.51772 117.0
    angle_coeff 1341 harmonic 1.51772 117.0
    angle_coeff 1342 harmonic 1.51772 117.0
    angle_coeff 1343 harmonic 1.51772 117.0
    angle_coeff 1344 harmonic 1.51772 117.0
    angle_coeff 1345 harmonic 1.51772 117.0
    angle_coeff 1346 harmonic 1.51772 117.0
    angle_coeff 1347 harmonic 1.51772 117.0
    angle_coeff 1348 harmonic 1.51772 117.0
    angle_coeff 1349 harmonic 1.51772 119.7
    angle_coeff 1350 harmonic 1.51772 119.7
    angle_coeff 1351 harmonic 1.51772 119.7
    angle_coeff 1352 harmonic 1.51772 119.7
    angle_coeff 1353 harmonic 1.51772 119.7
    angle_coeff 1354 harmonic 1.51772 119.7
    angle_coeff 1355 harmonic 1.51772 119.7
    angle_coeff 1356 harmonic 1.51772 119.7
    angle_coeff 1357 harmonic 1.51772 119.7
    angle_coeff 1358 harmonic 1.51772 120.0
    angle_coeff 1359 harmonic 1.51772 120.0
    angle_coeff 1360 harmonic 1.51772 120.0
    angle_coeff 1361 harmonic 3.03544 123.0
    angle_coeff 1362 harmonic 3.03544 123.0
    angle_coeff 1363 harmonic 3.03544 123.0
    angle_coeff 1364 harmonic 3.03544 124.0
    angle_coeff 1365 harmonic 3.03544 124.0
    angle_coeff 1366 harmonic 3.03544 124.0
    angle_coeff 1367 harmonic 3.03544 124.0
    angle_coeff 1368 harmonic 3.03544 124.0
    angle_coeff 1369 harmonic 3.68589 120.7
    angle_coeff 1370 harmonic 3.68589 120.7
    angle_coeff 1371 harmonic 3.68589 120.7
    dihedral_coeff 1 opls 0.0693814 0.138763 0.0 0.0
    dihedral_coeff 2 opls 0.0693814 0.138763 0.0 0.0
    dihedral_coeff 3 opls 0.0693814 0.138763 0.0 0.0
    dihedral_coeff 4 opls 0.0693814 0.138763 0.0 0.0
    dihedral_coeff 5 opls 0.0693814 0.138763 0.0 0.0
    dihedral_coeff 6 opls 0.0693814 0.138763 0.0 0.0
    dihedral_coeff 7 opls 0.0693814 0.138763 0.0 0.0
    dihedral_coeff 8 opls 0.0693814 0.138763 0.0 0.0
    dihedral_coeff 9 opls 0.0693814 0.138763 0.0 0.0
    dihedral_coeff 10 opls 0.0693814 0.138763 0.0 0.0
    dihedral_coeff 11 opls 0.0693814 0.138763 0.0 0.0
    dihedral_coeff 12 opls 0.0693814 0.138763 0.0 0.0
    dihedral_coeff 13 opls 0.0693814 0.138763 0.0 0.0
    dihedral_coeff 14 opls 0.0693814 0.138763 0.0 0.0
    dihedral_coeff 15 opls 0.0693814 0.138763 0.0 0.0
    dihedral_coeff 16 opls 0.0693814 0.138763 0.0 0.0
    dihedral_coeff 17 opls 0.0693814 0.138763 0.0 0.0
    dihedral_coeff 18 opls 0.0693814 0.138763 0.0 0.0
    dihedral_coeff 19 opls 0.0693814 0.138763 0.0 0.0
    dihedral_coeff 20 opls 0.0693814 0.138763 0.0 0.0
    dihedral_coeff 21 opls 0.0693814 0.138763 0.0 0.0
    dihedral_coeff 22 opls 0.0693814 0.138763 0.0 0.0
    dihedral_coeff 23 opls 0.0693814 0.138763 0.0 0.0
    dihedral_coeff 24 opls 0.0693814 0.138763 0.0 0.0
    dihedral_coeff 25 opls 0.0693814 0.138763 0.0 0.0
    dihedral_coeff 26 opls 0.0693814 0.138763 0.0 0.0
    dihedral_coeff 27 opls 0.0693814 0.138763 0.0 0.0
    dihedral_coeff 28 opls 0.0693814 0.138763 0.0 0.0
    dihedral_coeff 29 opls 0.0693814 0.138763 0.0 0.0
    dihedral_coeff 30 opls 0.0693814 0.138763 0.0 0.0
    dihedral_coeff 31 opls 0.0693814 0.138763 0.0 0.0
    dihedral_coeff 32 opls 0.0693814 0.138763 0.0 0.0
    dihedral_coeff 33 opls 0.0693814 0.138763 0.0 0.0
    dihedral_coeff 34 opls 0.0693814 0.138763 0.0 0.0
    dihedral_coeff 35 opls 0.0693814 0.138763 0.0 0.0
    dihedral_coeff 36 opls 0.0693814 0.138763 0.0 0.0
    dihedral_coeff 37 opls 0.0693814 0.138763 0.0 0.0
    dihedral_coeff 38 opls 0.0693814 0.138763 0.0 0.0
    dihedral_coeff 39 opls 0.0693814 0.138763 0.0 0.0
    dihedral_coeff 40 opls 0.0693814 0.138763 0.0 0.0
    dihedral_coeff 41 opls 0.0693814 0.138763 0.0 0.0
    dihedral_coeff 42 opls 0.0693814 0.138763 0.0 0.0
    dihedral_coeff 43 opls 0.0693814 0.138763 0.0 0.0
    dihedral_coeff 44 opls 0.0693814 0.138763 0.0 0.0
    dihedral_coeff 45 opls 0.0693814 0.138763 0.0 0.0
    dihedral_coeff 46 opls 0.0693814 0.138763 0.0 0.0
    dihedral_coeff 47 opls 0.0693814 0.138763 0.0 0.0
    dihedral_coeff 48 opls 0.0693814 0.138763 0.0 0.0
    dihedral_coeff 49 opls 0.0693814 0.138763 0.0 0.0
    dihedral_coeff 50 opls 0.0693814 0.138763 0.0 0.0
    dihedral_coeff 51 opls 0.0693814 0.138763 0.0 0.0
    dihedral_coeff 52 opls 0.0693814 0.138763 0.0 0.0
    dihedral_coeff 53 opls 0.0693814 0.138763 0.0 0.0
    dihedral_coeff 54 opls 0.0693814 0.138763 0.0 0.0
    dihedral_coeff 55 opls 0.0693814 0.138763 0.0 0.0
    dihedral_coeff 56 opls 0.0693814 0.138763 0.0 0.0
    dihedral_coeff 57 opls 0.0693814 0.138763 0.0 0.0
    dihedral_coeff 58 opls 0.0693814 0.138763 0.0 0.0
    dihedral_coeff 59 opls 0.0693814 0.138763 0.0 0.0
    dihedral_coeff 60 opls 0.0693814 0.138763 0.0 0.0
    dihedral_coeff 61 opls 0.0693814 0.138763 0.0 0.0
    dihedral_coeff 62 opls 0.0693814 0.138763 0.0 0.0
    dihedral_coeff 63 opls 0.0693814 0.138763 0.0 0.0
    dihedral_coeff 64 opls 0.0693814 0.138763 0.0 0.0
    dihedral_coeff 65 opls 0.0693814 0.138763 0.0 0.0
    dihedral_coeff 66 opls 0.0693814 0.138763 0.0 0.0
    dihedral_coeff 67 opls 0.0693814 0.138763 0.0 0.0
    dihedral_coeff 68 opls 0.0693814 0.138763 0.0 0.0
    dihedral_coeff 69 opls 0.0693814 0.138763 0.0 0.0
    dihedral_coeff 70 opls 0.0693814 0.138763 0.0 0.0
    dihedral_coeff 71 opls 0.0693814 0.138763 0.0 0.0
    dihedral_coeff 72 opls 0.0693814 0.138763 0.0 0.0
    dihedral_coeff 73 opls 0.0693814 0.138763 0.0 0.0
    dihedral_coeff 74 opls 0.0693814 0.138763 0.0 0.0
    dihedral_coeff 75 opls 0.0693814 0.138763 0.0 0.0
    dihedral_coeff 76 opls 0.0693814 0.138763 0.0 0.0
    dihedral_coeff 77 opls 0.0693814 0.138763 0.0 0.0
    dihedral_coeff 78 opls 0.0693814 0.138763 0.0 0.0
    dihedral_coeff 79 opls 0.0693814 0.138763 0.0 0.0
    dihedral_coeff 80 opls 0.0693814 0.138763 0.0 0.0
    dihedral_coeff 81 opls 0.0693814 0.138763 0.0 0.0
    dihedral_coeff 82 opls 0.0 0.0216817 0.0 0.0
    dihedral_coeff 83 opls 0.0 0.0216817 0.0 0.0
    dihedral_coeff 84 opls 0.0 0.0216817 0.0 0.0
    dihedral_coeff 85 opls 0.0 0.0216817 0.0 0.0
    dihedral_coeff 86 opls 0.0 0.0216817 0.0 0.0
    dihedral_coeff 87 opls 0.0 0.0216817 0.0 0.0
    dihedral_coeff 88 opls 0.0 0.0216817 0.0 0.0
    dihedral_coeff 89 opls 0.0 0.0216817 0.0 0.0
    dihedral_coeff 90 opls 0.0 0.0216817 0.0 0.0
    dihedral_coeff 91 opls 0.0 0.0216817 0.0 0.0
    dihedral_coeff 92 opls 0.0 0.0216817 0.0 0.0
    dihedral_coeff 93 opls 0.0 0.0216817 0.0 0.0
    dihedral_coeff 94 opls 0.0 0.0216817 0.0 0.0
    dihedral_coeff 95 opls 0.0 0.0216817 0.0 0.0
    dihedral_coeff 96 opls 0.0 0.0216817 0.0 0.0
    dihedral_coeff 97 opls 0.0 0.0216817 0.0 0.0
    dihedral_coeff 98 opls 0.0 0.0216817 0.0 0.0
    dihedral_coeff 99 opls 0.0 0.0216817 0.0 0.0
    dihedral_coeff 100 opls 0.0 0.0216817 0.0 0.0
    dihedral_coeff 101 opls 0.0 0.0216817 0.0 0.0
    dihedral_coeff 102 opls 0.0 0.0216817 0.0 0.0
    dihedral_coeff 103 opls 0.0 0.0216817 0.0 0.0
    dihedral_coeff 104 opls 0.0 0.0216817 0.0 0.0
    dihedral_coeff 105 opls 0.0 0.0216817 0.0 0.0
    dihedral_coeff 106 opls 0.0 0.0216817 0.0 0.0
    dihedral_coeff 107 opls 0.0 0.0216817 0.0 0.0
    dihedral_coeff 108 opls 0.0 0.0216817 0.0 0.0
    dihedral_coeff 109 opls 0.0 0.0216817 0.0 0.0
    dihedral_coeff 110 opls 0.0 0.0216817 0.0 0.0
    dihedral_coeff 111 opls 0.0 0.0216817 0.0 0.0
    dihedral_coeff 112 opls 0.0 0.0216817 0.0 0.0
    dihedral_coeff 113 opls 0.0 0.0216817 0.0 0.0
    dihedral_coeff 114 opls 0.0 0.0216817 0.0 0.0
    dihedral_coeff 115 opls 0.0 0.0216817 0.0 0.0
    dihedral_coeff 116 opls 0.0 0.0216817 0.0 0.0
    dihedral_coeff 117 opls 0.0 0.0216817 0.0 0.0
    dihedral_coeff 118 opls 0.0 0.0216817 0.0 0.0
    dihedral_coeff 119 opls 0.0 0.0216817 0.0 0.0
    dihedral_coeff 120 opls 0.0 0.0216817 0.0 0.0
    dihedral_coeff 121 opls 0.0 0.0216817 0.0 0.0
    dihedral_coeff 122 opls 0.0 0.0216817 0.0 0.0
    dihedral_coeff 123 opls 0.0 0.0216817 0.0 0.0
    dihedral_coeff 124 opls 0.0 0.0216817 0.0 0.0
    dihedral_coeff 125 opls 0.0 0.0216817 0.0 0.0
    dihedral_coeff 126 opls 0.0 0.0216817 0.0 0.0
    dihedral_coeff 127 opls 0.0 0.0216817 0.0 0.0
    dihedral_coeff 128 opls 0.0 0.0216817 0.0 0.0
    dihedral_coeff 129 opls 0.0 0.0216817 0.0 0.0
    dihedral_coeff 130 opls 0.0 0.0216817 0.0 0.0
    dihedral_coeff 131 opls 0.0 0.0216817 0.0 0.0
    dihedral_coeff 132 opls 0.0 0.0216817 0.0 0.0
    dihedral_coeff 133 opls 0.0 0.0216817 0.0 0.0
    dihedral_coeff 134 opls 0.0 0.0216817 0.0 0.0
    dihedral_coeff 135 opls 0.0 0.0216817 0.0 0.0
    dihedral_coeff 136 opls 0.0 0.0216817 0.0 0.0
    dihedral_coeff 137 opls 0.0 0.0216817 0.0 0.0
    dihedral_coeff 138 opls 0.0 0.0216817 0.0 0.0
    dihedral_coeff 139 opls 0.0 0.0216817 0.0 0.0
    dihedral_coeff 140 opls 0.0 0.0216817 0.0 0.0
    dihedral_coeff 141 opls 0.0 0.0216817 0.0 0.0
    dihedral_coeff 142 opls 0.0 0.0216817 0.0 0.0
    dihedral_coeff 143 opls 0.0 0.0216817 0.0 0.0
    dihedral_coeff 144 opls 0.0 0.0216817 0.0 0.0
    dihedral_coeff 145 opls 0.0 0.0216817 0.0 0.0
    dihedral_coeff 146 opls 0.0 0.0216817 0.0 0.0
    dihedral_coeff 147 opls 0.0 0.0216817 0.0 0.0
    dihedral_coeff 148 opls 0.0 0.0216817 0.0 0.0
    dihedral_coeff 149 opls 0.0 0.0216817 0.0 0.0
    dihedral_coeff 150 opls 0.0 0.0216817 0.0 0.0
    dihedral_coeff 151 opls 0.0 0.0216817 0.0 0.0
    dihedral_coeff 152 opls 0.0 0.0216817 0.0 0.0
    dihedral_coeff 153 opls 0.0 0.0216817 0.0 0.0
    dihedral_coeff 154 opls 0.0 0.0216817 0.0 0.0
    dihedral_coeff 155 opls 0.0 0.0216817 0.0 0.0
    dihedral_coeff 156 opls 0.0 0.0216817 0.0 0.0
    dihedral_coeff 157 opls 0.0 0.0216817 0.0 0.0
    dihedral_coeff 158 opls 0.0 0.0216817 0.0 0.0
    dihedral_coeff 159 opls 0.0 0.0216817 0.0 0.0
    dihedral_coeff 160 opls 0.0 0.0216817 0.0 0.0
[...]
Step     =       14974000 TotEng   =      8743.1278 KinEng   =      3480.8721 
PotEng   =      5262.2558 E_vdwl   =     -1107.1340 E_coul   =     19613.4504 
E_bond   =      1275.3028 E_angle  =      1827.6487 E_dihed  =       375.7840 
Temp     =       430.8281 c_temp_fluid =       449.5895 c_temp_surfaces =       381.7475 
Press    =      6712.9779 c_press_fluid =      5850.8313 c_gg_bot[1] =         7.7400 
c_gg_bot[3] =       -69.4137 c_gg_top[1] =        -5.1415 c_gg_top[3] =        52.6224 
v_dens_liquid =         0.9865 c_rg_1   =        14.0581 v_delta_h =        72.0422 
---------------- Step 14975000 ----- CPU = 139994.4777 (sec) ----------------
Step     =       14975000 TotEng   =      8741.7308 KinEng   =      3500.6647 
PotEng   =      5241.0660 E_vdwl   =     -1110.4798 E_coul   =     19608.8313 
E_bond   =      1270.0489 E_angle  =      1817.7763 E_dihed  =       375.8598 
Temp     =       433.2778 c_temp_fluid =       452.5408 c_temp_surfaces =       382.8844 
Press    =      7143.8341 c_press_fluid =      6279.1200 c_gg_bot[1] =         3.3277 
c_gg_bot[3] =       -55.8689 c_gg_top[1] =        -5.0115 c_gg_top[3] =        70.1143 
v_dens_liquid =         0.9853 c_rg_1   =        14.1337 v_delta_h =        72.1266 
---------------- Step 14976000 ----- CPU = 140023.2160 (sec) ----------------
Step     =       14976000 TotEng   =      8738.6262 KinEng   =      3497.7355 
PotEng   =      5240.8907 E_vdwl   =     -1112.8903 E_coul   =     19618.1897 
E_bond   =      1272.2928 E_angle  =      1814.8259 E_dihed  =       372.1253 
Temp     =       432.9153 c_temp_fluid =       452.7685 c_temp_surfaces =       380.9771 
Press    =      7244.8209 c_press_fluid =      6384.4142 c_gg_bot[1] =         4.7177 
c_gg_bot[3] =       -49.5900 c_gg_top[1] =        -2.3711 c_gg_top[3] =        53.8513 
v_dens_liquid =         0.9837 c_rg_1   =        14.1250 v_delta_h =        72.2457 
---------------- Step 14977000 ----- CPU = 140051.7653 (sec) ----------------
Step     =       14977000 TotEng   =      8735.6926 KinEng   =      3494.8582 
PotEng   =      5240.8343 E_vdwl   =     -1114.9042 E_coul   =     19605.7620 
E_bond   =      1265.0393 E_angle  =      1835.0704 E_dihed  =       369.6989 
Temp     =       432.5592 c_temp_fluid =       450.0863 c_temp_surfaces =       386.7092 
Press    =      6557.0617 c_press_fluid =      5683.7096 c_gg_bot[1] =         2.6975 
c_gg_bot[3] =       -53.2062 c_gg_top[1] =        -1.5383 c_gg_top[3] =        53.5597 
v_dens_liquid =         0.9840 c_rg_1   =        14.2255 v_delta_h =        72.2210 
---------------- Step 14978000 ----- CPU = 140080.2365 (sec) ----------------
Step     =       14978000 TotEng   =      8735.7755 KinEng   =      3497.9233 
PotEng   =      5237.8521 E_vdwl   =     -1115.9215 E_coul   =     19610.3392 
E_bond   =      1272.0486 E_angle  =      1819.1368 E_dihed  =       373.4487 
Temp     =       432.9385 c_temp_fluid =       452.7463 c_temp_surfaces =       381.1192 
Press    =      6798.8791 c_press_fluid =      5938.1515 c_gg_bot[1] =         4.7305 
c_gg_bot[3] =       -71.3616 c_gg_top[1] =        -6.1489 c_gg_top[3] =        62.8940 
v_dens_liquid =         0.9838 c_rg_1   =        14.0645 v_delta_h =        72.2383 
---------------- Step 14979000 ----- CPU = 140108.5795 (sec) ----------------
Step     =       14979000 TotEng   =      8735.0495 KinEng   =      3491.8313 
PotEng   =      5243.2182 E_vdwl   =     -1105.9547 E_coul   =     19611.0165 
E_bond   =      1269.0925 E_angle  =      1822.2352 E_dihed  =       369.4201 
Temp     =       432.1845 c_temp_fluid =       450.2521 c_temp_surfaces =       384.9200 
Press    =      6480.8537 c_press_fluid =      5611.5423 c_gg_bot[1] =         4.9442 
c_gg_bot[3] =       -58.2926 c_gg_top[1] =        -4.7068 c_gg_top[3] =        54.0472 
v_dens_liquid =         0.9849 c_rg_1   =        14.2134 v_delta_h =        72.1543 
---------------- Step 14980000 ----- CPU = 140137.1450 (sec) ----------------
Step     =       14980000 TotEng   =      8737.5853 KinEng   =      3499.1388 
PotEng   =      5238.4465 E_vdwl   =     -1111.2325 E_coul   =     19612.7803 
E_bond   =      1262.5595 E_angle  =      1823.8888 E_dihed  =       373.2174 
Temp     =       433.0890 c_temp_fluid =       452.0162 c_temp_surfaces =       383.5743 
Press    =      6617.0737 c_press_fluid =      5750.8015 c_gg_bot[1] =         3.1932 
c_gg_bot[3] =       -69.4768 c_gg_top[1] =        -3.6737 c_gg_top[3] =        65.2200 
v_dens_liquid =         0.9855 c_rg_1   =        14.0788 v_delta_h =        72.1127 
---------------- Step 14981000 ----- CPU = 140165.3843 (sec) ----------------
Step     =       14981000 TotEng   =      8739.2135 KinEng   =      3494.4494 
PotEng   =      5244.7641 E_vdwl   =     -1115.5595 E_coul   =     19610.1947 
E_bond   =      1268.5164 E_angle  =      1825.0206 E_dihed  =       378.0772 
Temp     =       432.5086 c_temp_fluid =       451.5388 c_temp_surfaces =       382.7244 
Press    =      6508.7264 c_press_fluid =      5644.3737 c_gg_bot[1] =         3.9752 
c_gg_bot[3] =       -54.7302 c_gg_top[1] =        -4.2450 c_gg_top[3] =        60.4304 
v_dens_liquid =         0.9854 c_rg_1   =        13.9906 v_delta_h =        72.1221 
---------------- Step 14982000 ----- CPU = 140193.7998 (sec) ----------------
Step     =       14982000 TotEng   =      8741.6213 KinEng   =      3478.9953 
PotEng   =      5262.6260 E_vdwl   =     -1114.7111 E_coul   =     19611.9618 
E_bond   =      1270.9572 E_angle  =      1841.6057 E_dihed  =       375.0758 
Temp     =       430.5958 c_temp_fluid =       449.4383 c_temp_surfaces =       381.3028 
Press    =      6865.5212 c_press_fluid =      6004.3790 c_gg_bot[1] =         4.6484 
c_gg_bot[3] =       -56.1522 c_gg_top[1] =        -5.0329 c_gg_top[3] =        56.9809 
v_dens_liquid =         0.9848 c_rg_1   =        14.1932 v_delta_h =        72.1635 
---------------- Step 14983000 ----- CPU = 140222.3420 (sec) ----------------
Step     =       14983000 TotEng   =      8743.5679 KinEng   =      3481.3367 
PotEng   =      5262.2311 E_vdwl   =     -1105.3512 E_coul   =     19609.2879 
E_bond   =      1269.5563 E_angle  =      1834.3839 E_dihed  =       375.6634 
Temp     =       430.8856 c_temp_fluid =       448.3429 c_temp_surfaces =       385.2182 
Press    =      6653.5448 c_press_fluid =      5783.5599 c_gg_bot[1] =         4.8399 
c_gg_bot[3] =       -56.1260 c_gg_top[1] =        -2.5717 c_gg_top[3] =        64.3269 
v_dens_liquid =         0.9852 c_rg_1   =        14.0610 v_delta_h =        72.1315 
---------------- Step 14984000 ----- CPU = 140250.8308 (sec) ----------------
Step     =       14984000 TotEng   =      8743.1237 KinEng   =      3485.9246 
PotEng   =      5257.1991 E_vdwl   =     -1112.8599 E_coul   =     19613.6316 
E_bond   =      1273.3648 E_angle  =      1828.7805 E_dihed  =       376.0589 
Temp     =       431.4535 c_temp_fluid =       449.3304 c_temp_surfaces =       384.6877 
Press    =      6900.6253 c_press_fluid =      6031.8387 c_gg_bot[1] =         3.0789 
c_gg_bot[3] =       -55.9206 c_gg_top[1] =        -1.9137 c_gg_top[3] =        48.7379 
v_dens_liquid =         0.9852 c_rg_1   =        14.1802 v_delta_h =        72.1349 
---------------- Step 14985000 ----- CPU = 140279.3860 (sec) ----------------
Step     =       14985000 TotEng   =      8742.0061 KinEng   =      3489.2869 
PotEng   =      5252.7192 E_vdwl   =     -1108.8882 E_coul   =     19610.0894 
E_bond   =      1276.6326 E_angle  =      1823.3774 E_dihed  =       373.4110 
Temp     =       431.8696 c_temp_fluid =       450.9929 c_temp_surfaces =       381.8416 
Press    =      6650.5220 c_press_fluid =      5788.1630 c_gg_bot[1] =         3.4040 
c_gg_bot[3] =       -49.3749 c_gg_top[1] =        -5.8308 c_gg_top[3] =        59.7465 
v_dens_liquid =         0.9864 c_rg_1   =        13.9721 v_delta_h =        72.0469 
---------------- Step 14986000 ----- CPU = 140307.8824 (sec) ----------------
Step     =       14986000 TotEng   =      8741.1057 KinEng   =      3494.1183 
PotEng   =      5246.9875 E_vdwl   =     -1108.3962 E_coul   =     19608.7457 
E_bond   =      1273.8915 E_angle  =      1818.2437 E_dihed  =       375.2709 
Temp     =       432.4676 c_temp_fluid =       450.8186 c_temp_surfaces =       384.4610 
Press    =      7271.4171 c_press_fluid =      6403.1422 c_gg_bot[1] =         1.2266 
c_gg_bot[3] =       -46.7728 c_gg_top[1] =        -6.2961 c_gg_top[3] =        59.5931 
v_dens_liquid =         0.9856 c_rg_1   =        14.2460 v_delta_h =        72.1040 
---------------- Step 14987000 ----- CPU = 140336.8516 (sec) ----------------
Step     =       14987000 TotEng   =      8738.1340 KinEng   =      3487.2439 
PotEng   =      5250.8901 E_vdwl   =     -1109.9669 E_coul   =     19611.3358 
E_bond   =      1278.2461 E_angle  =      1817.9160 E_dihed  =       375.2364 
Temp     =       431.6167 c_temp_fluid =       449.4373 c_temp_surfaces =       384.9987 
Press    =      6584.5310 c_press_fluid =      5715.0420 c_gg_bot[1] =         4.5984 
c_gg_bot[3] =       -61.4729 c_gg_top[1] =        -1.7568 c_gg_top[3] =        59.7463 
v_dens_liquid =         0.9846 c_rg_1   =        14.1069 v_delta_h =        72.1812 
---------------- Step 14988000 ----- CPU = 140365.4031 (sec) ----------------
Step     =       14988000 TotEng   =      8736.8441 KinEng   =      3493.5868 
PotEng   =      5243.2573 E_vdwl   =     -1116.6795 E_coul   =     19611.2465 
E_bond   =      1277.2891 E_angle  =      1819.2143 E_dihed  =       374.0720 
Temp     =       432.4018 c_temp_fluid =       451.1539 c_temp_surfaces =       383.3456 
Press    =      6578.8602 c_press_fluid =      5713.1045 c_gg_bot[1] =         3.0956 
c_gg_bot[3] =       -58.1769 c_gg_top[1] =        -1.7210 c_gg_top[3] =        58.9556 
v_dens_liquid =         0.9845 c_rg_1   =        14.4009 v_delta_h =        72.1879 
---------------- Step 14989000 ----- CPU = 140393.9142 (sec) ----------------
Step     =       14989000 TotEng   =      8734.8254 KinEng   =      3486.0147 
PotEng   =      5248.8107 E_vdwl   =     -1114.6190 E_coul   =     19609.7551 
E_bond   =      1269.2431 E_angle  =      1828.8700 E_dihed  =       376.8962 
Temp     =       431.4646 c_temp_fluid =       448.2888 c_temp_surfaces =       387.4544 
Press    =      6495.6265 c_press_fluid =      5620.5914 c_gg_bot[1] =         2.7954 
c_gg_bot[3] =       -59.2948 c_gg_top[1] =        -5.0547 c_gg_top[3] =        59.0144 
v_dens_liquid =         0.9857 c_rg_1   =        14.0566 v_delta_h =        72.0997 
---------------- Step 14990000 ----- CPU = 140422.3157 (sec) ----------------
Step     =       14990000 TotEng   =      8734.4267 KinEng   =      3497.2541 
PotEng   =      5237.1726 E_vdwl   =     -1120.1323 E_coul   =     19611.9932 
E_bond   =      1266.9128 E_angle  =      1827.0606 E_dihed  =       373.1793 
Temp     =       432.8557 c_temp_fluid =       450.7066 c_temp_surfaces =       386.1583 
Press    =      6477.7723 c_press_fluid =      5605.6643 c_gg_bot[1] =         2.3341 
c_gg_bot[3] =       -54.3368 c_gg_top[1] =        -2.1452 c_gg_top[3] =        58.2691 
v_dens_liquid =         0.9842 c_rg_1   =        14.2237 v_delta_h =        72.2051 
---------------- Step 14991000 ----- CPU = 140450.7578 (sec) ----------------
Step     =       14991000 TotEng   =      8735.0348 KinEng   =      3502.0967 
PotEng   =      5232.9381 E_vdwl   =     -1107.2431 E_coul   =     19612.1790 
E_bond   =      1263.5735 E_angle  =      1814.1637 E_dihed  =       372.5269 
Temp     =       433.4551 c_temp_fluid =       451.3364 c_temp_surfaces =       386.6782 
Press    =      6641.5544 c_press_fluid =      5768.2724 c_gg_bot[1] =         6.0209 
c_gg_bot[3] =       -58.1624 c_gg_top[1] =        -5.7512 c_gg_top[3] =        65.2585 
v_dens_liquid =         0.9840 c_rg_1   =        14.1913 v_delta_h =        72.2255 
---------------- Step 14992000 ----- CPU = 140479.2887 (sec) ----------------
Step     =       14992000 TotEng   =      8738.3822 KinEng   =      3502.3171 
PotEng   =      5236.0651 E_vdwl   =     -1105.1280 E_coul   =     19616.5318 
E_bond   =      1261.4363 E_angle  =      1815.1957 E_dihed  =       371.3321 
Temp     =       433.4824 c_temp_fluid =       451.8756 c_temp_surfaces =       385.3654 
Press    =      6862.5135 c_press_fluid =      5992.1963 c_gg_bot[1] =         1.6951 
c_gg_bot[3] =       -54.6755 c_gg_top[1] =        -2.4246 c_gg_top[3] =        66.3530 
v_dens_liquid =         0.9848 c_rg_1   =        14.1841 v_delta_h =        72.1639 
---------------- Step 14993000 ----- CPU = 140507.7404 (sec) ----------------
Step     =       14993000 TotEng   =      8738.3532 KinEng   =      3477.3617 
PotEng   =      5260.9916 E_vdwl   =     -1116.5735 E_coul   =     19610.5290 
E_bond   =      1278.9881 E_angle  =      1834.7746 E_dihed  =       373.6353 
Temp     =       430.3936 c_temp_fluid =       449.6406 c_temp_surfaces =       380.0419 
Press    =      6487.2089 c_press_fluid =      5628.9143 c_gg_bot[1] =         6.6863 
c_gg_bot[3] =       -57.2741 c_gg_top[1] =        -3.6005 c_gg_top[3] =        66.4768 
v_dens_liquid =         0.9852 c_rg_1   =        14.1686 v_delta_h =        72.1341 
---------------- Step 14994000 ----- CPU = 140536.0843 (sec) ----------------
Step     =       14994000 TotEng   =      8741.2437 KinEng   =      3487.5713 
PotEng   =      5253.6724 E_vdwl   =     -1113.1106 E_coul   =     19611.1729 
E_bond   =      1269.7508 E_angle  =      1835.8585 E_dihed  =       371.3424 
Temp     =       431.6573 c_temp_fluid =       449.7421 c_temp_surfaces =       384.3473 
Press    =      6663.1058 c_press_fluid =      5795.0878 c_gg_bot[1] =         4.3203 
c_gg_bot[3] =       -54.5942 c_gg_top[1] =        -4.3338 c_gg_top[3] =        57.5719 
v_dens_liquid =         0.9855 c_rg_1   =        14.3221 v_delta_h =        72.1154 
---------------- Step 14995000 ----- CPU = 140564.4973 (sec) ----------------
Step     =       14995000 TotEng   =      8741.1845 KinEng   =      3497.2551 
PotEng   =      5243.9294 E_vdwl   =     -1109.8147 E_coul   =     19611.0691 
E_bond   =      1262.2908 E_angle  =      1825.1739 E_dihed  =       376.7998 
Temp     =       432.8558 c_temp_fluid =       450.7190 c_temp_surfaces =       386.1263 
Press    =      6907.7089 c_press_fluid =      6035.6733 c_gg_bot[1] =         2.5710 
c_gg_bot[3] =       -55.0260 c_gg_top[1] =        -2.0007 c_gg_top[3] =        59.3396 
v_dens_liquid =         0.9853 c_rg_1   =        14.3659 v_delta_h =        72.1260 
---------------- Step 14996000 ----- CPU = 140592.9025 (sec) ----------------
Step     =       14996000 TotEng   =      8740.4492 KinEng   =      3477.9122 
PotEng   =      5262.5370 E_vdwl   =     -1106.8153 E_coul   =     19605.7925 
E_bond   =      1274.1940 E_angle  =      1836.2243 E_dihed  =       372.9769 
Temp     =       430.4618 c_temp_fluid =       448.3877 c_temp_surfaces =       383.5679 
Press    =      6722.5152 c_press_fluid =      5856.2575 c_gg_bot[1] =         2.4565 
c_gg_bot[3] =       -63.9195 c_gg_top[1] =        -5.5511 c_gg_top[3] =        55.5597 
v_dens_liquid =         0.9854 c_rg_1   =        14.2930 v_delta_h =        72.1167 
---------------- Step 14997000 ----- CPU = 140621.3761 (sec) ----------------
Step     =       14997000 TotEng   =      8739.0574 KinEng   =      3504.2559 
PotEng   =      5234.8015 E_vdwl   =     -1118.1058 E_coul   =     19605.2479 
E_bond   =      1267.0318 E_angle  =      1829.5057 E_dihed  =       370.8774 
Temp     =       433.7223 c_temp_fluid =       451.1639 c_temp_surfaces =       388.0963 
Press    =      6167.8686 c_press_fluid =      5291.3839 c_gg_bot[1] =         1.2622 
c_gg_bot[3] =       -57.8208 c_gg_top[1] =        -3.6435 c_gg_top[3] =        55.1894 
v_dens_liquid =         0.9856 c_rg_1   =        14.3659 v_delta_h =        72.1069 
---------------- Step 14998000 ----- CPU = 140649.6018 (sec) ----------------
Step     =       14998000 TotEng   =      8737.6665 KinEng   =      3465.2658 
PotEng   =      5272.4008 E_vdwl   =     -1114.3183 E_coul   =     19610.9337 
E_bond   =      1284.3704 E_angle  =      1837.1620 E_dihed  =       375.7125 
Temp     =       428.8965 c_temp_fluid =       447.0074 c_temp_surfaces =       381.5182 
Press    =      6856.0125 c_press_fluid =      5994.3838 c_gg_bot[1] =         8.6508 
c_gg_bot[3] =       -57.2835 c_gg_top[1] =        -3.8909 c_gg_top[3] =        64.1244 
v_dens_liquid =         0.9847 c_rg_1   =        14.1800 v_delta_h =        72.1703 
---------------- Step 14999000 ----- CPU = 140677.8918 (sec) ----------------
Step     =       14999000 TotEng   =      8736.6166 KinEng   =      3492.0346 
PotEng   =      5244.5820 E_vdwl   =     -1106.8586 E_coul   =     19610.9899 
E_bond   =      1266.2733 E_angle  =      1825.9222 E_dihed  =       370.2626 
Temp     =       432.2097 c_temp_fluid =       449.6517 c_temp_surfaces =       386.5825 
Press    =      6915.0639 c_press_fluid =      6041.9979 c_gg_bot[1] =         1.4334 
c_gg_bot[3] =       -54.0770 c_gg_top[1] =        -4.4599 c_gg_top[3] =        66.3162 
v_dens_liquid =         0.9848 c_rg_1   =        14.2627 v_delta_h =        72.1674 
---------------- Step 15000000 ----- CPU = 140706.0811 (sec) ----------------
Step     =       15000000 TotEng   =      8733.3080 KinEng   =      3492.1948 
PotEng   =      5241.1131 E_vdwl   =     -1111.8761 E_coul   =     19609.0367 
E_bond   =      1278.6104 E_angle  =      1814.3470 E_dihed  =       372.6731 
Temp     =       432.2295 c_temp_fluid =       450.4802 c_temp_surfaces =       384.4857 
Press    =      6276.2918 c_press_fluid =      5407.9614 c_gg_bot[1] =         4.3237 
c_gg_bot[3] =       -63.9849 c_gg_top[1] =        -4.3328 c_gg_top[3] =        56.6261 
v_dens_liquid =         0.9847 c_rg_1   =        14.3901 v_delta_h =        72.1695 
Loop time of 140706 on 96 procs for 5000000 steps with 75520 atoms

Performance: 3.070 ns/day, 7.817 hours/ns, 35.535 timesteps/s
99.4% CPU use with 96 MPI tasks x no OpenMP threads

MPI task timing breakdown:
Section |  min time  |  avg time  |  max time  |%varavg| %total
---------------------------------------------------------------
Pair    | 5.5678     | 38221      | 80083      |16918.0 | 27.16
Bond    | 7.4308     | 2404.2     | 5620.2     |5031.8 |  1.71
Kspace  | 39341      | 84726      | 1.2619e+05 |12291.2 | 60.21
Neigh   | 9647       | 9695.9     | 9861.6     |  66.3 |  6.89
Comm    | 71.994     | 1729.6     | 2728.6     |2127.6 |  1.23
Output  | 148.55     | 148.55     | 148.69     |   0.1 |  0.11
Modify  | 2953       | 3578       | 4256.9     | 804.1 |  2.54
Other   |            | 203.3      |            |       |  0.14

Nlocal:    786.667 ave 1456 max 0 min
Histogram: 36 0 0 0 12 0 0 0 12 36
Nghost:    6352.43 ave 11566 max 0 min
Histogram: 24 0 12 0 12 0 12 0 0 36
Neighs:    334139 ave 688925 max 0 min
Histogram: 36 0 12 0 0 0 1 11 2 34

Total # of neighbors = 32077382
Ave neighs/atom = 424.753
Ave special neighs/atom = 36.4966
Neighbor list builds = 261927
Dangerous builds = 0

###################
# Run shear phase #
###################

write_restart  shear.rst2
PPPM initialization ...
WARNING: Using 12-bit tables for long-range coulomb (../kspace.cpp:317)
  G vector (1/distance) = 0.275732
  grid = 50 50 216
  stencil order = 5
  estimated absolute RMS force accuracy = 0.000169547
  estimated relative force accuracy = 1.17744e-05
  using double precision FFTs
  3d grid and FFT values/proc = 67735 33813
write_data     shear.data2
PPPM initialization ...
WARNING: Using 12-bit tables for long-range coulomb (../kspace.cpp:317)
  G vector (1/distance) = 0.275732
  grid = 50 50 216
  stencil order = 5
  estimated absolute RMS force accuracy = 0.000169547
  estimated relative force accuracy = 1.17744e-05
  using double precision FFTs
  3d grid and FFT values/proc = 67735 33813
Total wall time: 39:05:08
